1 : da5d1d14cc9d696aa0668bdbd3fe099d.inp
----- GAMESS execution script 'rungms' -----
This job is running on host ip-172-31-6-188
under operating system Linux at Tue May 7 02:50:56 UTC 2024
Available scratch disk space (Kbyte units) at beginning of the job is
Filesystem     1K-blocks     Used Available Use% Mounted on
/dev/root       30297152 26762260   3518508  89% /
GAMESS temporary binary files will be written to /home/ubuntu/scratch/gamess/restart
GAMESS supplementary output files will be written to /home/ubuntu/scratch/gamess/restart
Copying input file /home/ubuntu/scratch/molecalc_data/da5d1d14cc9d696aa0668bdbd3fe099d/da5d1d14cc9d696aa0668bdbd3fe099d.inp to your run's scratch directory...

 Distributed Data Interface kickoff program.
 Initiating 1 compute processes on 1 nodes to run the following command:
 /home/ubuntu/Library/gamess/gamess.00.x da5d1d14cc9d696aa0668bdbd3fe099d 

          *******************************************************
          *                                                     *
          *          GAMESS VERSION = 31 JUL 2022 (R1)          *
          *                                                     *
          *              doi.org/10.1063/5.0005188              *
          *                                                     *
          **************** 64 BIT INTEL VERSION *****************

  GAMESS HAS BEEN MADE POSSIBLE WITH IMPORTANT CONTRIBUTIONS FROM
  THE FOLLOWING INDIVIDUALS (IN ALPHABETICAL ORDER):

     IVANA ADAMOVIC, CHRISTINE AIKENS, TOMOKO AKAMA,
     MELISA ALKAN, YURI ALEXEEV, YURIKO AOKI, POOJA ARORA,
     TOSHIO ASADA, ANDREY ASADCHEV, KIM K. BALDRIDGE,
     PRADIPTA BANDYOPADHYAY, TAYLOR A. BARNES, MARIA BARYSZ,
     ROB BELL, JONATHAN BENTZ, COLLEEN BERTONI,
     JERRY A. BOATZ, BRETT BODE, KURT BRORSEN, KURT R. BRORSEN,
     LAIMUTIS BYTAUTAS, CALEB CARLIN, LAURA CARRINGTON,
     GALINA CHABAN, BENOIT CHAMPAGNE, WEI CHEN, MAHITO CHIBA,
     DAN CHIPMAN, CHEOL HO CHOI, TANNER CULPITT,
     DIPAYAN DATTA, PAUL DAY, ALBERT DEFUSCO,
     NUWAN DESILVA, J. EMILIANO DEUSTUA,
     TIM DUDLEY, MICHEL DUPUIS, STEVEN T. ELBERT,
     DMITRI FEDOROV, KATHERINE FERRERAS, MICHAEL FILATOV,
     ALEX FINDLATER,GRAHAM FLETCHER, MARK FREITAG,
     CHRISTIAN FRIEDL, DAVID GARMER, 
     IGOR S. GERASIMOV, KURT GLAESEMANN,
     MARK S. GORDON, JEFFREY GOUR, FENG LONG GU,
     EMILIE B. GUIDEZ, ANASTASIA GUNINA, SHARON HAMMES-SCHIFFER,
     MASATAKE HARUTA, KIMIHIKO HIRAO, YASUHIRO IKABATA,
     TZVETELIN IORDANOV, STEPHAN IRLE, KAZUYA ISHIMURA,
     JOE IVANIC, FRANK JENSEN, JAN H. JENSEN, VISVALDAS KAIRYS,
     MUNEAKI KAMIYA, MICHIO KATOUDA, NAOAKI KAWAKAMI, DAN KEMP,
     BERNARD KIRTMAN, KAZUO KITAURA, MARIUSZ KLOBUKOWSKI,
     MASATO KOBAYASHI, KONSTANTIN KOMAROV, PRAKASHAN KORAMBATH,
     JACEK KORCHOWIEC, SHIRO KOSEKI, KAROL KOWALSKI,
     JIMMY KROMANN, STANISLAW KUCHARSKI, HENRY KURTZ,
     SAROM SOK LEANG, SEUNGHOON LEE, HUI LI, SHUHUA LI, WEI LI,
     JESSE LUTZ, ALEKSANDR O. LYKHIN, MARCIN MAKOWSKI,
     JOANI MATO, NIKITA MATSUNAGA, BENEDETTA MENNUCCI,
     GRANT MERRILL, NORIYUKI MINEZAWA, VLADIMIR MIRONOV,
     EISAKU MIYOSHI, JOHN A. MONTGOMERY JR., HIROTOSHI MORI,
     JONATHAN MULLIN, MONIKA MUSIAL, SHIGERU NAGASE,
     TAKESHI NAGATA, HIROMI NAKAI, TAKAHITO NAKAJIMA,
     YUYA NAKAJIMA, HARUYUKI NAKANO, HIROYA NAKATA, SEAN NEDD,
     HEATHER NETZLOFF, KIET A. NGUYEN, YOSHIO NISHIMOTO,
     BOSILJKA NJEGIC, RYAN OLSON, MIKE PAK, ROBERTO PEVERATI,
     BUU PHAM, PIOTR PIECUCH, ANNA POMOGAEVA, DAVID POOLE,
     SPENCER PRUITT, OLIVIER QUINET, LUKE ROSKOP,
     KLAUS RUEDENBERG, ANDREW SAND, TOSAPORN SATTASATHUCHANA,
     NOZOMI SAWADA, MICHAEL W. SCHMIDT, PATRICK E. SCHNEIDER,
     JUNJI SEINO, PRACHI SHARMA, JUN SHEN, JIM SHOEMAKER,
     YINAN SHU, DEJUN SI, JONATHAN SKONE, LYUDMILA SLIPCHENKO,
     TONY SMITH, JIE SONG, MARK SPACKMAN, CASPER STEINMANN,
     WALT STEVENS, PEIFENG SU, SHUJUN SU, CHET SWALINA,
     CHINAMI TAKASHIMA, TETSUYA TAKETSUGU, ZHEN TAO,
     NANDUN THELLAMUREGE, SEIKEN TOKURA, JACOPO TOMASI,
     TSUGUKI TOUMA, TAKAO TSUNEDA, HIROAKI UMEDA,
     JORGE LUIS GALVEZ VALLEJO, YALI WANG, SIMON WEBB,
     AARON WEST, THERESA L. WINDUS, MARTA WLOCH,
     PENG XU, KIYOSHI YAGI, SUSUMU YANAGISAWA, YANG YANG,
     SOOHAENG YOO, TAKESHI YOSHIKAWA, FEDERICO ZAHARIEV,
     TOBY ZENG

  WHO ARE SUPPORTED BY THEIR INSTITUTION/UNIVERSITY/COMPANY/GROUP
  (IN ALPHABETICAL ORDER):

     EP ANALYTICS,
     FACULTES UNIVERSITAIRES NOTRE-DAME DE LA PAIX,
     INSTITUTE FOR MOLECULAR SCIENCE, IOWA STATE UNIVERSITY,
     JACKSON STATE UNIVERSITY, JOHANNES KEPLER UNIVERSITY LINZ,
     KYUNGPOOK NATIONAL UNIVERSITY
     KYUSHU UNIVERSITY, MICHIGAN STATE UNIVERSITY,
     MIE UNIVERSITY, THE MOLECULAR SCIENCES SOFTWARE INSTITUTE,
     MOSCOW STATE UNIVERSITY,
     N. COPERNICUS UNIVERSITY, NAGOYA UNIVERSITY,
     NANJING UNIVERSITY, NAT. INST. OF ADVANCED INDUSTRIAL
     SCIENCE AND TECHNOLOGY, NATIONAL INST. OF STANDARDS AND
     TECHNOLOGY, NESMEYANOV INSTITUTE OF ORGANOELEMENT COMPOUNDS
     OF RUSSIAN ACADEMY OF SCIENCES, OSAKA PREFECTURE UNIVERSITY,
     PENNSYLVANIA STATE UNIVERSITY, TOKYO INSTITUTE OF TECHNOLOGY,
     UNIVERSITY OF AARHUS, UNIVERSITY OF ALBERTA,
     UNIVERSITY OF CALIFORNIA AT SANTA BARBARA,
     UNIVERSITY OF COPENHAGEN, UNIVERSITY OF IOWA,
     UNIVERSITY OF MEMPHIS, UNIVERSITY OF MINNESOTA,
     UNIVERSITY OF NEBRASKA, UNIVERSITY OF NEW ENGLAND,
     UNIVERSITY OF NOTRE DAME, UNIVERSITY OF PISA,
     UNIVERSITY OF SILESIA, UNIVERSITY OF TOKYO,
     UNIVERSITY OF ZURICH, WASEDA UNIVERSITY,
     YALE UNIVERSITY

  GAMESS SOFTWARE MANAGEMENT TEAM FOR THIS RELEASE:
     MARK S. GORDON (TEAM LEAD),
     BRETT BODE (SENIOR ADVISOR),
     GIUSEPPE BARCA,
     COLLEEN BERTONI,
     KRISTOPHER KEIPERT (ADVISOR),
     SAROM S. LEANG (DEVELOPMENT LEAD),
     BUU PHAM,
     JACKSON HAYES (WEBSITE ADMINISTRATOR),
     PENG XU

 EXECUTION OF GAMESS BEGUN 02:50:56 07-MAY-2024    

            ECHO OF THE FIRST FEW INPUT CARDS -
 INPUT CARD> $basis gbasis=pm6 $end                                                         
 INPUT CARD> $contrl runtyp=optimize icharg=0 $end                                          
 INPUT CARD> $statpt opttol=0.00025 nstep=999 projct=.F. $end                               
 INPUT CARD> $data                                                                          
 INPUT CARD>Title                                                                           
 INPUT CARD>C1                                                                              
 INPUT CARD>O     8.0    -2.955200     0.140000    -0.245700                                
 INPUT CARD>C     6.0    -2.002200     -0.568800    0.400900                                
 INPUT CARD>O     8.0    -2.242900     -1.382600    1.275100                                
 INPUT CARD>C     6.0    -0.629700     -0.211100    -0.042300                               
 INPUT CARD>C     6.0    -0.175400     1.102100    0.138400                                 
 INPUT CARD>C     6.0    1.193000     1.361400    0.065000                                  
 INPUT CARD>C     6.0    2.089900     0.324600    -0.177300                                 
 INPUT CARD>C     6.0    1.624000     -0.964200    -0.445700                                
 INPUT CARD>C     6.0    0.253900     -1.228600    -0.412700                                
 INPUT CARD>H     1.0    -3.809600     -0.151800    0.131900                                
 INPUT CARD>H     1.0    -0.867600     1.893500    0.399200                                 
 INPUT CARD>H     1.0    1.562900     2.367800    0.248500                                  
 INPUT CARD>H     1.0    3.159800     0.516500    -0.156400                                 
 INPUT CARD>H     1.0    2.325800     -1.765100    -0.646400                                
 INPUT CARD>H     1.0    -0.113300     -2.226900    -0.637600                               
 INPUT CARD> $end                                                                           
    1000000 WORDS OF MEMORY AVAILABLE

     BASIS OPTIONS
     -------------
     GBASIS=PM6          IGAUSS=       0      POLAR=NONE    
     NDFUNC=       0     NFFUNC=       0     DIFFSP=       F
     NPFUNC=       0      DIFFS=       F     BASNAM=        


     RUN TITLE
     ---------
 Title                                                                           

 THE POINT GROUP OF THE MOLECULE IS C1      
 THE ORDER OF THE PRINCIPAL AXIS IS     0

 ATOM      ATOMIC                      COORDINATES (BOHR)
           CHARGE         X                   Y                   Z
 O           8.0    -5.5845182389        0.2645616383       -0.4643056752
 C           6.0    -3.7836093726       -1.0748761418        0.7575911485
 O           8.0    -4.2384664179       -2.6127351506        2.4095896069
 C           6.0    -1.1899604545       -0.3989211560       -0.0799354093
 C           6.0    -0.3314579382        2.0826670111        0.2615380767
 C           6.0     2.2544431034        2.5726729597        0.1228321892
 C           6.0     3.9493383417        0.6134050556       -0.3350484176
 C           6.0     3.0689150041       -1.8220737974       -0.8422508727
 C           6.0     0.4798014283       -2.3217173485       -0.7798899151
 H           1.0    -7.1991001228       -0.2868604049        0.2492548578
 H           1.0    -1.6395262669        3.5781961578        0.7543786143
 H           1.0     2.9534527462        4.4744931937        0.4695969079
 H           1.0     5.9711561760        0.9760434727       -0.2955531445
 H           1.0     4.3951247022       -3.3355553409       -1.2215188785
 H           1.0    -0.2141059544       -4.2082308021       -1.2048892898

          INTERNUCLEAR DISTANCES (ANGS.)
          ------------------------------

                1 O          2 C          3 O          4 C          5 C     

   1 O       0.0000000    1.3522936 *  2.2668292 *  2.3606340 *  2.9665565 *
   2 C       1.3522936 *  0.0000000    1.2183729 *  1.4859784 *  2.4895805 *
   3 O       2.2668292 *  1.2183729 *  0.0000000    2.3896379 *  3.4264234  
   4 C       2.3606340 *  1.4859784 *  2.3896379 *  0.0000000    1.4012620 *
   5 C       2.9665565 *  2.4895805 *  3.4264234    1.4012620 *  0.0000000  
   6 C       4.3354257    3.7480400    4.5606235    2.4096690 *  1.3946837 *
   7 C       5.0489395    4.2282102    4.8782326    2.7751439 *  2.4157311 *
   8 C       4.7146930    3.7446494    4.2531314    2.4101981 *  2.8015369 *
   9 C       3.4927465    2.4874220 *  3.0176804    1.3975877 *  2.4331404 *
  10 H       0.9786360 *  1.8742851 *  2.2970250 *  3.1852200    3.8444398  
  11 H       2.8015589 *  2.7111329 *  3.6594374    2.1635295 *  1.0832689 *
  12 H       5.0616750    4.6213400    5.4409118    3.3974674    2.1530921 *
  13 H       6.1272303    5.3042156    5.9029603    3.8604055    3.3990283  
  14 H       5.6284036    4.6108085    4.9710651    3.3933513    3.8849387  
  15 H       3.7191661    2.7195075 *  2.9843693 *  2.1643707 *  3.4188117  

                6 C          7 C          8 C          9 C         10 H     

   1 O       4.3354257    5.0489395    4.7146930    3.4927465    0.9786360 *
   2 C       3.7480400    4.2282102    3.7446494    2.4874220 *  1.8742851 *
   3 O       4.5606235    4.8782326    4.2531314    3.0176804    2.2970250 *
   4 C       2.4096690 *  2.7751439 *  2.4101981 *  1.3975877 *  3.1852200  
   5 C       1.3946837 *  2.4157311 *  2.8015369 *  2.4331404 *  3.8444398  
   6 C       0.0000000    1.3921541 *  2.4197088 *  2.7961055 *  5.2268783  
   7 C       1.3921541 *  0.0000000    1.3964622 *  2.4163484 *  5.9267750  
   8 C       2.4197088 *  1.3964622 *  0.0000000    1.3957687 *  5.5242759  
   9 C       2.7961055 *  2.4163484 *  1.3957687 *  0.0000000    4.2388819  
  10 H       5.2268783    5.9267750    5.5242759    4.2388819    0.0000000  
  11 H       2.1542731 *  3.3971467    3.8843759    3.4153261    3.5930579  
  12 H       1.0878140 *  2.1526033 *  3.4040962    3.8839103    5.9351273  
  13 H       2.1520168 *  1.0871745 *  2.1528699 *  3.3993115    7.0073018  
  14 H       3.4006364    2.1546577 *  1.0836256 *  2.1529555 *  6.3915273  
  15 H       3.8827778    3.4023696    2.1562579 *  1.0872069 *  4.3082252  

               11 H         12 H         13 H         14 H         15 H     

   1 O       2.8015589 *  5.0616750    6.1272303    5.6284036    3.7191661  
   2 C       2.7111329 *  4.6213400    5.3042156    4.6108085    2.7195075 *
   3 O       3.6594374    5.4409118    5.9029603    4.9710651    2.9843693 *
   4 C       2.1635295 *  3.3974674    3.8604055    3.3933513    2.1643707 *
   5 C       1.0832689 *  2.1530921 *  3.3990283    3.8849387    3.4188117  
   6 C       2.1542731 *  1.0878140 *  2.1520168 *  3.4006364    3.8827778  
   7 C       3.3971467    2.1526033 *  1.0871745 *  2.1546577 *  3.4023696  
   8 C       3.8843759    3.4040962    2.1528699 *  1.0836256 *  2.1562579 *
   9 C       3.4153261    3.8839103    3.3993115    2.1529555 *  1.0872069 *
  10 H       3.5930579    5.9351273    7.0073018    6.3915273    4.3082252  
  11 H       0.0000000    2.4809275 *  4.2924085    4.9675383    4.3152774  
  12 H       2.4809275 *  0.0000000    2.4781738 *  4.2969437    4.9705219  
  13 H       4.2924085    2.4781738 *  0.0000000    2.4781757 *  4.2977879  
  14 H       4.9675383    4.2969437    2.4781757 *  0.0000000    2.4824475 *
  15 H       4.3152774    4.9705219    4.2977879    2.4824475 *  0.0000000  

  * ... LESS THAN  3.000


 TOTAL NUMBER OF BASIS SET SHELLS             =   15
 NUMBER OF CARTESIAN GAUSSIAN BASIS FUNCTIONS =   42
 NUMBER OF ELECTRONS                          =   46
 CHARGE OF MOLECULE                           =    0
 SPIN MULTIPLICITY                            =    1
 NUMBER OF OCCUPIED ORBITALS (ALPHA)          =   23
 NUMBER OF OCCUPIED ORBITALS (BETA )          =   23
 TOTAL NUMBER OF ATOMS                        =   15
 THE NUCLEAR REPULSION ENERGY IS      404.2441585812

 THE PARAMETERS USED IN THIS CALCULATION ARE DESCRIBED IN:

 H:  (PM6) J. J. P. STEWART, J Mol Model (2007) 13:1173-1213                    
 C:  (PM6) J. J. P. STEWART, J Mol Model (2007) 13:1173-1213                    
 O:  (PM6) J. J. P. STEWART, J Mol Model (2007) 13:1173-1213                    

 THERE ARE    9 HEAVY AND    6 LIGHT ATOMS,
 YIELDING A TOTAL OF      4155 MOPAC 2E- INTEGRALS.

     $CONTRL OPTIONS
     ---------------
 SCFTYP=RHF          RUNTYP=OPTIMIZE     EXETYP=RUN     
 MPLEVL=       0     CITYP =NONE         CCTYP =NONE         VBTYP =NONE    
 DFTTYP=NONE         TDDFT =NONE    
 MULT  =       1     ICHARG=       0     NZVAR =       0     COORD =UNIQUE  
 PP    =NONE         RELWFN=NONE         LOCAL =NONE         NUMGRD=       F
 ISPHER=      -1     NOSYM =       0     MAXIT =      30     UNITS =ANGS    
 PLTORB=       F     MOLPLT=       F     AIMPAC=       F     FRIEND=        
 NPRINT=       7     IREST =       0     GEOM  =INPUT   
 NORMF =       0     NORMP =       0     ITOL  =      20     ICUT  =       9
 INTTYP=BEST         GRDTYP=BEST         QMTTOL= 1.0E-06

     $SYSTEM OPTIONS
     ---------------
  REPLICATED MEMORY=     1000000 WORDS (ON EVERY NODE).
 DISTRIBUTED MEMDDI=           0 MILLION WORDS IN AGGREGATE,
 MEMDDI DISTRIBUTED OVER   1 PROCESSORS IS           0 WORDS/PROCESSOR.
 TOTAL MEMORY REQUESTED ON EACH PROCESSOR=     1000000 WORDS.
 TIMLIM=      525600.00 MINUTES, OR     365.0 DAYS.
 PARALL= F  BALTYP=  DLB     KDIAG=    0  COREFL= F
 MXSEQ2=     300 MXSEQ3=     150  mem10=         0  mem22=         0

          ----------------
          PROPERTIES INPUT
          ----------------

     MOMENTS            FIELD           POTENTIAL          DENSITY
 IEMOM =       1   IEFLD =       0   IEPOT =       0   IEDEN =       0
 WHERE =COMASS     WHERE =NUCLEI     WHERE =NUCLEI     WHERE =NUCLEI  
 OUTPUT=BOTH       OUTPUT=BOTH       OUTPUT=BOTH       OUTPUT=BOTH    
 IEMINT=       0   IEFINT=       0                     IEDINT=       0
                                                       MORB  =       0
          EXTRAPOLATION IN EFFECT
 ORBITAL PRINTING OPTION: NPREO=     1    42     2     1

     -------------------------------
     INTEGRAL TRANSFORMATION OPTIONS
     -------------------------------
     NWORD  =            0
     CUTOFF = 1.0E-09     MPTRAN =       0
     DIRTRF =       F     AOINTS =DUP     

          ----------------------
          INTEGRAL INPUT OPTIONS
          ----------------------
 NOPK  =       1 NORDER=       0 SCHWRZ=       T

     ------------------------------------------
     THE POINT GROUP IS C1 , NAXIS= 0, ORDER= 1
     ------------------------------------------

     DIMENSIONS OF THE SYMMETRY SUBSPACES ARE
 A   =   42

 ..... DONE SETTING UP THE RUN .....
 STEP CPU TIME =     0.01 TOTAL CPU TIME =          0.0 (      0.0 MIN)
 TOTAL WALL CLOCK TIME=          0.0 SECONDS, CPU UTILIZATION IS    99.52%


          -----------------------------
          STATIONARY POINT LOCATION RUN
          -----------------------------

 OBTAINING INITIAL HESSIAN, HESS=GUESS   
 CARTESIAN COORDINATE OPTIMIZATION USING BADGER'S RULE FORCE CONSTANT GUESS

          PARAMETERS CONTROLLING GEOMETRY SEARCH ARE
          METHOD =QA                  UPHESS =BFGS    
          NNEG   =         0          NFRZ   =         0
          NSTEP  =       999          IFOLOW =         1
          HESS   =GUESS               RESTAR =         F
          IHREP  =         0          HSSEND =         F
          NPRT   =         0          NPUN   =         0
          OPTTOL = 2.500E-04          RMIN   = 1.500E-03
          RMAX   = 1.000E-01          RLIM   = 7.000E-02
          DXMAX  = 3.000E-01          PURIFY =         F
          MOVIE  =         F          TRUPD  =         T
          TRMAX  = 5.000E-01          TRMIN  = 5.000E-02
          ITBMAT =         5          STPT   =         F
          STSTEP = 1.000E-02          PROJCT=          F

 BEGINNING GEOMETRY SEARCH POINT NSERCH=   0 ...

 COORDINATES OF ALL ATOMS ARE (ANGS)
   ATOM   CHARGE       X              Y              Z
 ------------------------------------------------------------
 O           8.0  -2.9552000000   0.1400000000  -0.2457000000
 C           6.0  -2.0022000000  -0.5688000000   0.4009000000
 O           8.0  -2.2429000000  -1.3826000000   1.2751000000
 C           6.0  -0.6297000000  -0.2111000000  -0.0423000000
 C           6.0  -0.1754000000   1.1021000000   0.1384000000
 C           6.0   1.1930000000   1.3614000000   0.0650000000
 C           6.0   2.0899000000   0.3246000000  -0.1773000000
 C           6.0   1.6240000000  -0.9642000000  -0.4457000000
 C           6.0   0.2539000000  -1.2286000000  -0.4127000000
 H           1.0  -3.8096000000  -0.1518000000   0.1319000000
 H           1.0  -0.8676000000   1.8935000000   0.3992000000
 H           1.0   1.5629000000   2.3678000000   0.2485000000
 H           1.0   3.1598000000   0.5165000000  -0.1564000000
 H           1.0   2.3258000000  -1.7651000000  -0.6464000000
 H           1.0  -0.1133000000  -2.2269000000  -0.6376000000

          ********************
          1 ELECTRON INTEGRALS
          ********************

          **************************
          1 AND 2 ELECTRON INTEGRALS
          **************************

 MOPAC ONE- AND TWO-ELECTRON INTEGRALS REQUIRE      5961 WORDS.
 ...... END OF ONE- AND TWO-ELECTRON INTEGRALS......
 STEP CPU TIME =     0.00 TOTAL CPU TIME =          0.0 (      0.0 MIN)
 TOTAL WALL CLOCK TIME=          0.0 SECONDS, CPU UTILIZATION IS    99.53%
 ...... END OF ONE-ELECTRON INTEGRALS ......
 STEP CPU TIME =     0.00 TOTAL CPU TIME =          0.0 (      0.0 MIN)
 TOTAL WALL CLOCK TIME=          0.0 SECONDS, CPU UTILIZATION IS    99.52%

          -------------
          GUESS OPTIONS
          -------------
          GUESS =HUCKEL            NORB  =       0          NORDER=       0
          MIX   =       F          PRTMO =       F          PUNMO =       F
          TOLZ  = 1.0E-08          TOLE  = 1.0E-05
          SYMDEN=       F          PURIFY=       F

 INITIAL GUESS ORBITALS GENERATED BY HUCKEL   ROUTINE.

 SYMMETRIES FOR INITIAL GUESS ORBITALS FOLLOW.   BOTH SET(S).
    23 ORBITALS ARE OCCUPIED (    0 CORE ORBITALS).
     1=A        2=A        3=A        4=A        5=A        6=A        7=A   
     8=A        9=A       10=A       11=A       12=A       13=A       14=A   
    15=A       16=A       17=A       18=A       19=A       20=A       21=A   
    22=A       23=A       24=A       25=A       26=A       27=A       28=A   
    29=A       30=A       31=A       32=A       33=A   
 ...... END OF INITIAL ORBITAL SELECTION ......
 STEP CPU TIME =     0.00 TOTAL CPU TIME =          0.0 (      0.0 MIN)
 TOTAL WALL CLOCK TIME=          0.0 SECONDS, CPU UTILIZATION IS    99.58%

          --------------------------
               R-PM6 SCF CALCULATION
          --------------------------

     NUCLEAR ENERGY =       183.1559427327
     MAXIT =   30     NPUNCH=    2
     EXTRAP=T  DAMP=F  SHIFT=F  RSTRCT=F  DIIS=F  DEM=F  SOSCF=F
     DENSITY MATRIX CONV=  1.00E-05
     MEMORY REQUIRED FOR RHF ITERS=     17331 WORDS.

 ITER EX DEM     TOTAL ENERGY        E CHANGE  DENSITY CHANGE    DIIS ERROR
   1  0  0      -55.7910986527   -55.7910986527   0.115103149   0.000000000
   2  1  0      -55.8957139733    -0.1046153207   0.028765610   0.000000000
   3  2  0      -55.9040989935    -0.0083850202   0.014892007   0.000000000
   4  3  0      -55.9054698607    -0.0013708671   0.007677753   0.000000000
   5  4  0      -55.9057684753    -0.0002986147   0.004004613   0.000000000
   6  0  0      -55.9058441885    -0.0000757132   0.005188135   0.000000000
   7  1  0      -55.9058771279    -0.0000329394   0.000607309   0.000000000
   8  2  0      -55.9058779518    -0.0000008239   0.000468755   0.000000000
   9  3  0      -55.9058784068    -0.0000004550   0.000378641   0.000000000
  10  0  0      -55.9058786817    -0.0000002749   0.001761758   0.000000000
  11  1  0      -55.9058791376    -0.0000004560   0.000051954   0.000000000
  12  2  0      -55.9058791499    -0.0000000123   0.000040647   0.000000000
  13  3  0      -55.9058791540    -0.0000000042   0.000029336   0.000000000
  14  4  0      -55.9058791559    -0.0000000019   0.000022658   0.000000000
  15  5  0      -55.9058791569    -0.0000000010   0.000018078   0.000000000
  16  6  0      -55.9058791575    -0.0000000006   0.000014440   0.000000000
  17  7  0      -55.9058791579    -0.0000000004   0.000011541   0.000000000

          ----------------
          ENERGY CONVERGED
          ----------------
     TIME TO FORM FOCK OPERATORS=       0.0 SECONDS (       0.0 SEC/ITER)
     TIME TO SOLVE SCF EQUATIONS=       0.0 SECONDS (       0.0 SEC/ITER)

 FINAL R-PM6 ENERGY IS      -55.9058791579 AFTER  17 ITERATIONS

 HEAT OF FORMATION IS       -58.81591 KCAL/MOL
 

          ------------
          EIGENVECTORS
          ------------

                      1          2          3          4          5
                   -1.1990    -1.1490    -1.1201    -0.9978    -0.9757
                     A          A          A          A          A   
    1  O  1  S    0.521374   0.624266   0.005183  -0.113460   0.030331
    2  O  1  X    0.034393  -0.009044   0.042230   0.183931  -0.015774
    3  O  1  Y   -0.159801  -0.079165   0.004281  -0.001009  -0.011787
    4  O  1  Z    0.163543   0.083561  -0.004771  -0.008962  -0.007719
    5  C  2  S    0.504417  -0.106454   0.058190   0.240414   0.000461
    6  C  2  X   -0.168455  -0.131737   0.101629   0.213968   0.017223
    7  C  2  Y   -0.060330   0.286725   0.065515   0.109311  -0.023587
    8  C  2  Z    0.081405  -0.283500  -0.069315  -0.121453  -0.036126
    9  O  3  S    0.471849  -0.553475  -0.118885  -0.193696  -0.043572
   10  O  3  X    0.021254  -0.088662   0.017757   0.065009   0.007768
   11  O  3  Y    0.195641  -0.121350  -0.015224   0.018058  -0.016895
   12  O  3  Z   -0.206568   0.137140   0.016032  -0.021698  -0.006952
   13  C  4  S    0.116843  -0.055918   0.388646   0.457224   0.034232
   14  C  4  X   -0.087540  -0.013021   0.125942  -0.100310   0.044317
   15  C  4  Y   -0.025099   0.047753   0.031801   0.000177  -0.238504
   16  C  4  Z    0.032443  -0.031009  -0.010219   0.028048  -0.059381
   17  C  5  S    0.030236  -0.009040   0.371508   0.182018  -0.407630
   18  C  5  X   -0.023259  -0.011269   0.082805  -0.159923  -0.096543
   19  C  5  Y   -0.022069   0.013095  -0.109164  -0.117444  -0.074343
   20  C  5  Z    0.003688  -0.004419  -0.024010  -0.000172  -0.012286
   21  C  6  S   -0.000905  -0.017027   0.356227  -0.231257  -0.421527
   22  C  6  X   -0.004558   0.000106  -0.050685  -0.141220   0.101734
   23  C  6  Y   -0.002488   0.010261  -0.128665   0.070125  -0.024066
   24  C  6  Z    0.000916   0.000320  -0.016484   0.023739  -0.018898
   25  C  7  S   -0.002421  -0.023313   0.352274  -0.423995  -0.031686
   26  C  7  X   -0.001603   0.010031  -0.134393   0.029452   0.040703
   27  C  7  Y   -0.000443   0.004933  -0.023628   0.015290  -0.216076
   28  C  7  Z    0.000347   0.000206   0.001443   0.004683  -0.048398
   29  C  8  S   -0.000551  -0.033272   0.350713  -0.273865   0.390435
   30  C  8  X   -0.005359   0.014711  -0.091093  -0.091729  -0.106011
   31  C  8  Y    0.000091  -0.004666   0.099578  -0.107977  -0.077905
   32  C  8  Z    0.001549  -0.004310   0.030518  -0.017173  -0.008152
   33  C  9  S    0.031806  -0.062737   0.362334   0.122569   0.439387
   34  C  9  X   -0.029826   0.012302   0.040411  -0.194552   0.091179
   35  C  9  Y    0.009190  -0.010730   0.130091   0.049299  -0.024657
   36  C  9  Z    0.011110  -0.015418   0.032443   0.035876  -0.008893
   37  H 10  S    0.223237   0.208135  -0.014982  -0.105383   0.014523
   38  H 11  S    0.017424   0.004056   0.108681   0.090737  -0.183100
   39  H 12  S   -0.001185  -0.003674   0.101257  -0.094466  -0.186630
   40  H 13  S   -0.001474  -0.006029   0.100635  -0.177237  -0.013929
   41  H 14  S   -0.001077  -0.009420   0.099770  -0.113073   0.173132
   42  H 15  S    0.017605  -0.026076   0.102889   0.061401   0.195450

                      6          7          8          9         10
                   -0.8717    -0.8060    -0.7652    -0.6749    -0.6594
                     A          A          A          A          A   
    1  O  1  S   -0.155417  -0.029175  -0.122083  -0.013986   0.266881
    2  O  1  X    0.363469   0.069450   0.355825   0.421797   0.334234
    3  O  1  Y   -0.069186   0.025671  -0.124542  -0.092947   0.226346
    4  O  1  Z    0.038879   0.033998   0.082176   0.037849  -0.263150
    5  C  2  S    0.360427  -0.007002   0.187021  -0.066643  -0.159372
    6  C  2  X    0.088820  -0.053886  -0.177178  -0.316982   0.097201
    7  C  2  Y    0.122488   0.083254   0.054270   0.096961   0.120476
    8  C  2  Z   -0.130649   0.054519  -0.072247  -0.088477  -0.146396
    9  O  3  S   -0.228255   0.055939  -0.130253   0.175967   0.420888
   10  O  3  X    0.052231  -0.034913  -0.056989  -0.227323  -0.002778
   11  O  3  Y    0.087417   0.033640   0.085380  -0.066679  -0.297797
   12  O  3  Z   -0.091755   0.041752  -0.103810   0.083320   0.298118
   13  C  4  S    0.036894  -0.052397  -0.304350  -0.027091   0.031495
   14  C  4  X   -0.286484  -0.042774  -0.098944   0.236386  -0.092155
   15  C  4  Y   -0.038112   0.343721  -0.057449   0.093667   0.012799
   16  C  4  Z    0.057305   0.080020  -0.013589  -0.121047  -0.047990
   17  C  5  S   -0.240813   0.314617   0.034847  -0.064858   0.028613
   18  C  5  X   -0.079716  -0.190754   0.149599   0.118909  -0.145543
   19  C  5  Y   -0.039938  -0.001293   0.276259  -0.206128   0.077171
   20  C  5  Z    0.005551   0.025953   0.031020  -0.096489   0.007854
   21  C  6  S   -0.026418  -0.295695   0.239238  -0.044650  -0.005639
   22  C  6  X    0.235753  -0.223059  -0.113012  -0.032596   0.095343
   23  C  6  Y   -0.071039  -0.033200   0.196164  -0.232515   0.114774
   24  C  6  Z   -0.029068   0.008880   0.044063  -0.062813   0.009080
   25  C  7  S    0.370786  -0.050397  -0.223331  -0.026062   0.059007
   26  C  7  X    0.094464   0.042865  -0.083555  -0.230444   0.179986
   27  C  7  Y   -0.006204  -0.332522   0.039674   0.004185   0.069240
   28  C  7  Z   -0.006280  -0.071107   0.009073  -0.000230   0.003413
   29  C  8  S    0.036168   0.347888   0.157941  -0.075377  -0.024913
   30  C  8  X    0.204648   0.167340  -0.114146  -0.198250   0.061712
   31  C  8  Y    0.145290  -0.019005  -0.235735   0.178127  -0.095045
   32  C  8  Z    0.022276  -0.013120  -0.051037   0.032029  -0.033520
   33  C  9  S   -0.251601  -0.258884   0.139936   0.000545   0.073255
   34  C  9  X   -0.043870   0.249520   0.195998   0.074882  -0.072234
   35  C  9  Y    0.004568   0.025290  -0.218068   0.217612  -0.138783
   36  C  9  Z    0.010905  -0.019541  -0.080502   0.000991  -0.051786
   37  H 10  S   -0.185296  -0.037390  -0.173516  -0.220639  -0.231940
   38  H 11  S   -0.095880   0.215051   0.083916  -0.186711   0.114695
   39  H 12  S   -0.005312  -0.193202   0.198147  -0.171541   0.087297
   40  H 13  S    0.217861  -0.032924  -0.145011  -0.157270   0.151161
   41  H 14  S    0.029171   0.228798   0.137704  -0.204555   0.062937
   42  H 15  S   -0.108868  -0.174978   0.151985  -0.142637   0.139823

                     11         12         13         14         15
                   -0.6175    -0.6047    -0.5693    -0.5586    -0.5415
                     A          A          A          A          A   
    1  O  1  S   -0.205698  -0.017060   0.149118   0.014628   0.003782
    2  O  1  X    0.000161  -0.010305   0.068373  -0.094407   0.020794
    3  O  1  Y   -0.230879   0.289597   0.258508  -0.185809   0.044748
    4  O  1  Z    0.233836   0.297437  -0.105078  -0.291155   0.056947
    5  C  2  S   -0.054537   0.000265   0.033756   0.028975  -0.002979
    6  C  2  X   -0.320643   0.034028   0.110905   0.062299  -0.002076
    7  C  2  Y   -0.004543   0.326837   0.004179  -0.228234   0.053732
    8  C  2  Z    0.004944   0.323810   0.120597  -0.181339   0.043152
    9  O  3  S   -0.043523  -0.007728  -0.089043  -0.026855   0.005041
   10  O  3  X   -0.265871   0.025728   0.211676   0.061012   0.008194
   11  O  3  Y    0.046250   0.328667   0.144704  -0.223487   0.050624
   12  O  3  Z   -0.059700   0.301239  -0.024608  -0.276970   0.066295
   13  C  4  S   -0.051470   0.001072  -0.234883  -0.052753  -0.003632
   14  C  4  X    0.160412  -0.023122  -0.093965  -0.155069  -0.009485
   15  C  4  Y    0.076251   0.215829  -0.138499   0.299613   0.079478
   16  C  4  Z   -0.114007   0.157969   0.080481   0.049022   0.021376
   17  C  5  S    0.176490  -0.065225   0.081205   0.053631   0.048149
   18  C  5  X   -0.227088  -0.162762   0.027247  -0.192734   0.350503
   19  C  5  Y    0.084667  -0.183287   0.293251  -0.152856  -0.224807
   20  C  5  Z    0.005779   0.042134   0.103315  -0.026430  -0.084991
   21  C  6  S   -0.172560   0.022845  -0.095740  -0.011750   0.056585
   22  C  6  X    0.038581   0.263150  -0.162034   0.215278  -0.249560
   23  C  6  Y   -0.031033  -0.044516  -0.275593  -0.268241  -0.316759
   24  C  6  Z   -0.019496   0.002442  -0.013188  -0.078784  -0.044844
   25  C  7  S    0.178600  -0.004634   0.141290   0.034050   0.002483
   26  C  7  X    0.320950  -0.038727  -0.157664  -0.153514  -0.003571
   27  C  7  Y    0.079974   0.242773  -0.122608   0.290716   0.055526
   28  C  7  Z   -0.000881   0.067622   0.004229   0.052268   0.012386
   29  C  8  S   -0.177200  -0.018232  -0.091781  -0.010646  -0.062400
   30  C  8  X   -0.015602  -0.216198  -0.154543  -0.209404   0.340413
   31  C  8  Y    0.029753  -0.153164   0.318057  -0.162611  -0.201818
   32  C  8  Z   -0.012737  -0.005001   0.104235  -0.049041  -0.065499
   33  C  9  S    0.190938   0.055826   0.093453  -0.027486  -0.042372
   34  C  9  X   -0.150822   0.223203  -0.007609   0.266271  -0.248555
   35  C  9  Y   -0.160630  -0.101374  -0.185886  -0.211204  -0.343086
   36  C  9  Z   -0.078553  -0.007424  -0.002136  -0.107899  -0.066214
   37  H 10  S    0.050167   0.022248  -0.085996   0.029408  -0.009151
   38  H 11  S    0.229015  -0.041272   0.200808   0.026324  -0.270812
   39  H 12  S   -0.098520   0.043829  -0.269611  -0.139935  -0.249203
   40  H 13  S    0.311216   0.001620  -0.050664  -0.052636   0.006283
   41  H 14  S   -0.108345  -0.026443  -0.297154  -0.010131   0.242926
   42  H 15  S    0.239648   0.036343   0.169996   0.079666   0.276696

                     16         17         18         19         20
                   -0.5204    -0.5028    -0.4706    -0.4598    -0.4543
                     A          A          A          A          A   
    1  O  1  S   -0.223873  -0.038665  -0.056842  -0.008110  -0.003823
    2  O  1  X   -0.161751   0.027148  -0.045480   0.033664   0.035712
    3  O  1  Y   -0.257357  -0.198744  -0.189716   0.188771   0.493176
    4  O  1  Z    0.342478   0.030513   0.079311   0.262130   0.487104
    5  C  2  S    0.039773  -0.004997   0.082097   0.008239   0.007202
    6  C  2  X    0.113843  -0.002860   0.150747   0.013283   0.005720
    7  C  2  Y    0.177420   0.021530   0.074434  -0.005537  -0.073544
    8  C  2  Z   -0.168815  -0.079548  -0.069012  -0.031872  -0.076052
    9  O  3  S    0.214782   0.061961   0.070573   0.013886   0.002238
   10  O  3  X   -0.073921  -0.015725   0.274897   0.039857  -0.010391
   11  O  3  Y   -0.286300  -0.168194  -0.103541  -0.148378  -0.447660
   12  O  3  Z    0.342930   0.071871   0.198847  -0.066408  -0.416397
   13  C  4  S    0.027786  -0.016663  -0.044301  -0.006317  -0.002456
   14  C  4  X   -0.291925   0.071401  -0.138961   0.042083  -0.028784
   15  C  4  Y   -0.070235  -0.087621   0.023342  -0.305821   0.127328
   16  C  4  Z   -0.010540   0.369326  -0.012825  -0.096177   0.032413
   17  C  5  S   -0.044436   0.007199   0.021145   0.020026  -0.005938
   18  C  5  X   -0.081042   0.101408   0.290483  -0.013819   0.044491
   19  C  5  Y    0.135105  -0.060159   0.014619   0.295639  -0.128926
   20  C  5  Z    0.002155   0.363421  -0.128247   0.021368  -0.023058
   21  C  6  S    0.044514  -0.019507  -0.029427  -0.011612   0.002923
   22  C  6  X    0.063486  -0.035162  -0.318984   0.020490  -0.043604
   23  C  6  Y   -0.068128  -0.100348   0.035411  -0.318510   0.114450
   24  C  6  Z   -0.057826   0.378134  -0.095295  -0.098172   0.044878
   25  C  7  S    0.022632   0.003547   0.011523  -0.000497  -0.002764
   26  C  7  X   -0.315165   0.098800   0.369536  -0.013616   0.053392
   27  C  7  Y   -0.083715  -0.043128   0.051043   0.341166  -0.117264
   28  C  7  Z   -0.052334   0.381882  -0.123102   0.042254   0.001950
   29  C  8  S    0.042628  -0.018939  -0.029719   0.005986  -0.002255
   30  C  8  X    0.049855  -0.036528  -0.317610   0.017058  -0.049336
   31  C  8  Y    0.164589  -0.123388  -0.013645  -0.329910   0.101085
   32  C  8  Z   -0.010883   0.367294  -0.109033  -0.093427   0.049227
   33  C  9  S   -0.028349   0.006248   0.022880  -0.018965  -0.002087
   34  C  9  X   -0.070593   0.087051   0.296510  -0.016612   0.058838
   35  C  9  Y   -0.127704  -0.062841   0.073043   0.302468  -0.100731
   36  C  9  Z   -0.069738   0.364066  -0.101279   0.073662  -0.018532
   37  H 10  S    0.202186   0.013150   0.073170   0.004728   0.006430
   38  H 11  S    0.085855  -0.016829  -0.158694   0.207982  -0.105255
   39  H 12  S   -0.012922  -0.044093  -0.092138  -0.258659   0.084125
   40  H 13  S   -0.233953   0.076487   0.311791   0.039799   0.025198
   41  H 14  S   -0.040802  -0.012478  -0.159968   0.228412  -0.098122
   42  H 15  S    0.099006  -0.031774  -0.106169  -0.250054   0.068140

                     21         22         23         24         25
                   -0.4130    -0.3749    -0.3731    -0.0186    -0.0037
                     A          A          A          A          A   
    1  O  1  S    0.030697   0.017818  -0.003372   0.029706  -0.004212
    2  O  1  X    0.164712   0.035157  -0.003781   0.017340  -0.007326
    3  O  1  Y   -0.241994  -0.041734  -0.000940  -0.121792  -0.005594
    4  O  1  Z    0.207884  -0.025359  -0.002612  -0.060816  -0.018275
    5  C  2  S   -0.096655  -0.013994  -0.000065   0.010892   0.006497
    6  C  2  X   -0.103983  -0.011469  -0.002123   0.075247   0.001017
    7  C  2  Y   -0.053915   0.009742   0.000976   0.196798   0.042782
    8  C  2  Z    0.067857   0.013279  -0.000021   0.248523   0.026104
    9  O  3  S   -0.029077  -0.001606  -0.000464  -0.015909   0.003244
   10  O  3  X    0.785621  -0.146572  -0.008964  -0.073722   0.006986
   11  O  3  Y   -0.116319  -0.090660   0.015126  -0.184148  -0.022546
   12  O  3  Z    0.037242  -0.039009   0.011071  -0.120769  -0.025967
   13  C  4  S   -0.092635  -0.005264  -0.000794  -0.019736  -0.003453
   14  C  4  X    0.313264   0.143749  -0.015059   0.130861  -0.007526
   15  C  4  Y    0.076954  -0.109288   0.017143  -0.080861   0.015992
   16  C  4  Z   -0.003061   0.560551  -0.020254   0.466340  -0.033250
   17  C  5  S    0.025868   0.004387   0.011333  -0.019279  -0.016742
   18  C  5  X   -0.125455   0.019127  -0.063827  -0.030654   0.063894
   19  C  5  Y   -0.071801  -0.046075   0.089602   0.093735  -0.088686
   20  C  5  Z    0.004483   0.231580  -0.494359  -0.309937   0.504558
   21  C  6  S   -0.019940  -0.005208   0.006491  -0.002474   0.008989
   22  C  6  X    0.127615  -0.008938  -0.028935  -0.005595  -0.034193
   23  C  6  Y    0.049850   0.062837   0.092909   0.043304   0.087486
   24  C  6  Z   -0.031580  -0.312712  -0.475859  -0.216561  -0.469214
   25  C  7  S   -0.009083  -0.000600   0.004726  -0.000794  -0.003298
   26  C  7  X   -0.067405  -0.010591  -0.002209   0.009325   0.002988
   27  C  7  Y   -0.007830   0.112863  -0.007853  -0.101589   0.003330
   28  C  7  Z   -0.045415  -0.542258   0.027925   0.501938  -0.030018
   29  C  8  S   -0.015763  -0.011272  -0.005917  -0.011561  -0.007087
   30  C  8  X    0.118693   0.007799   0.018536   0.014447   0.027197
   31  C  8  Y    0.022827   0.061359  -0.107764   0.044470  -0.113005
   32  C  8  Z   -0.019123  -0.261095   0.507966  -0.189219   0.497324
   33  C  9  S    0.012238   0.008585  -0.004579   0.021924   0.011593
   34  C  9  X   -0.113907   0.005980   0.050792  -0.053508  -0.049194
   35  C  9  Y   -0.005614  -0.072132  -0.134316   0.104776   0.130992
   36  C  9  Z    0.028637   0.272035   0.462954  -0.327513  -0.465535
   37  H 10  S   -0.062015  -0.026811   0.004251  -0.028929   0.002730
   38  H 11  S    0.043552   0.011350  -0.001401   0.009310   0.006417
   39  H 12  S    0.062649  -0.000511   0.002349  -0.000184  -0.006910
   40  H 13  S   -0.069591  -0.000281   0.000450  -0.001330   0.003509
   41  H 14  S    0.046578   0.000803  -0.008221   0.015320   0.009660
   42  H 15  S    0.049974   0.014809   0.008448   0.010524  -0.001767

                     26         27         28         29         30
                    0.0194     0.0629     0.0768     0.1144     0.1379
                     A          A          A          A          A   
    1  O  1  S   -0.022328  -0.218044  -0.048227   0.122201   0.095339
    2  O  1  X   -0.031897  -0.123343  -0.029030   0.107730  -0.154720
    3  O  1  Y   -0.158975   0.299619   0.032666  -0.171303  -0.020797
    4  O  1  Z   -0.195870  -0.292283  -0.064013   0.150355   0.008041
    5  C  2  S   -0.006597   0.545701  -0.054043   0.100467   0.298653
    6  C  2  X    0.006818  -0.138830  -0.152458   0.660442  -0.116396
    7  C  2  Y    0.554363   0.201885   0.119541  -0.042099  -0.206024
    8  C  2  Z    0.482588  -0.218446   0.014348   0.058364   0.344349
    9  O  3  S    0.011095   0.002938   0.022123   0.009319  -0.172359
   10  O  3  X    0.008840   0.068417   0.082410  -0.219927  -0.085314
   11  O  3  Y   -0.295324  -0.148274   0.003120   0.019739  -0.290842
   12  O  3  Z   -0.317398   0.159056  -0.066990  -0.030681   0.267468
   13  C  4  S    0.014914  -0.234709   0.051376  -0.135846  -0.077188
   14  C  4  X   -0.077632   0.363648  -0.160521   0.402150  -0.017127
   15  C  4  Y    0.075238   0.093552   0.048002   0.077391  -0.332284
   16  C  4  Z   -0.224077  -0.021867  -0.282381  -0.272840  -0.150450
   17  C  5  S   -0.059662   0.014628  -0.028135   0.025847   0.126644
   18  C  5  X    0.032124   0.033807   0.018655   0.135386  -0.121828
   19  C  5  Y    0.070564  -0.005193  -0.071684   0.018927  -0.307363
   20  C  5  Z    0.028079  -0.016153   0.364164   0.101531  -0.011843
   21  C  6  S    0.013822  -0.036490   0.027838  -0.059871   0.037608
   22  C  6  X   -0.012933   0.069263  -0.070594   0.149874  -0.016421
   23  C  6  Y   -0.038962   0.004316   0.075420   0.014428  -0.118562
   24  C  6  Z    0.185781  -0.005049  -0.404216  -0.080867  -0.034236
   25  C  7  S    0.002178  -0.017682   0.003646  -0.020888   0.005270
   26  C  7  X   -0.007741   0.017295   0.000977   0.053424   0.000788
   27  C  7  Y    0.059219   0.003239  -0.097618  -0.019156  -0.170274
   28  C  7  Z   -0.247618   0.013139   0.425567   0.056744  -0.033172
   29  C  8  S   -0.005492  -0.044820   0.018054  -0.056888  -0.016769
   30  C  8  X    0.012686   0.077477  -0.056010   0.133357  -0.060953
   31  C  8  Y   -0.021230   0.029073   0.075230   0.048170  -0.133003
   32  C  8  Z    0.109061  -0.010040  -0.410076  -0.070595  -0.034500
   33  C  9  S    0.051887   0.055122   0.001563  -0.028237  -0.080921
   34  C  9  X   -0.035891  -0.000093  -0.005744   0.189455   0.037892
   35  C  9  Y    0.020638   0.052887  -0.084928  -0.089548  -0.166891
   36  C  9  Z    0.120537   0.018289   0.370984   0.077712  -0.022376
   37  H 10  S    0.022700   0.285218   0.039162  -0.025230  -0.304382
   38  H 11  S   -0.012584   0.029484  -0.008256   0.063397   0.073571
   39  H 12  S   -0.019324   0.008564  -0.004406  -0.005802   0.135977
   40  H 13  S   -0.000581  -0.019338   0.020751  -0.061183   0.036238
   41  H 14  S    0.010554   0.019693  -0.002687  -0.035135  -0.077894
   42  H 15  S   -0.000217   0.034302  -0.013278   0.039792  -0.120936

                     31         32         33         34         35
                    0.1464     0.1544     0.1631     0.1700     0.1746
                     A          A          A          A          A   
    1  O  1  S    0.105012   0.009653  -0.025313   0.017213   0.054954
    2  O  1  X   -0.168943  -0.172826   0.061115  -0.162178  -0.264573
    3  O  1  Y   -0.031571   0.024901   0.010927   0.004500  -0.040991
    4  O  1  Z    0.064628  -0.009356  -0.027615   0.012240   0.075357
    5  C  2  S    0.217614  -0.002830  -0.035172   0.061136   0.020615
    6  C  2  X   -0.033709  -0.259822  -0.020348  -0.056830   0.060389
    7  C  2  Y   -0.233040   0.035253   0.032285   0.082606   0.131707
    8  C  2  Z    0.170047  -0.011538   0.024442  -0.092168  -0.201012
    9  O  3  S   -0.117941  -0.003947   0.003398   0.029071   0.075203
   10  O  3  X   -0.071798   0.073339   0.010467   0.028366   0.012828
   11  O  3  Y   -0.163721  -0.017756  -0.001288   0.021647   0.094656
   12  O  3  Z    0.207930   0.010217  -0.018947  -0.021855  -0.081972
   13  C  4  S   -0.025271   0.348717   0.002206   0.362788  -0.199161
   14  C  4  X   -0.080907  -0.012385   0.021920   0.322498  -0.063692
   15  C  4  Y    0.377920  -0.048557  -0.326094   0.038035   0.147074
   16  C  4  Z    0.019122   0.015119  -0.065243  -0.035615   0.050145
   17  C  5  S   -0.045061   0.019158   0.020678  -0.286590  -0.166398
   18  C  5  X    0.046588   0.333935  -0.275184  -0.064663  -0.288073
   19  C  5  Y    0.240797   0.155195  -0.213489   0.224251  -0.035015
   20  C  5  Z    0.072205  -0.014800  -0.006788   0.042158   0.016906
   21  C  6  S   -0.083428   0.018647  -0.002429  -0.079866   0.247684
   22  C  6  X   -0.060744   0.361072  -0.341641  -0.294940  -0.185292
   23  C  6  Y    0.210803  -0.033470   0.172964   0.157646  -0.233438
   24  C  6  Z    0.027576  -0.032703   0.052607   0.055965  -0.025785
   25  C  7  S   -0.006722  -0.095316  -0.033362   0.283634  -0.051117
   26  C  7  X   -0.051214   0.267825  -0.039121  -0.323605   0.071316
   27  C  7  Y    0.312519  -0.012514   0.466217  -0.044252  -0.187949
   28  C  7  Z    0.079519   0.000040   0.099802  -0.008012  -0.042134
   29  C  8  S    0.087538  -0.005700   0.037131  -0.146503  -0.258847
   30  C  8  X   -0.009937   0.309122   0.320114  -0.087078   0.267198
   31  C  8  Y    0.229120   0.082881   0.338212  -0.229383  -0.038293
   32  C  8  Z    0.032809   0.002052   0.063555  -0.040332  -0.029308
   33  C  9  S    0.074172   0.003089   0.012446  -0.224466   0.354298
   34  C  9  X   -0.144628   0.379233   0.360521   0.157105   0.143667
   35  C  9  Y    0.223769  -0.066318  -0.058623  -0.218560   0.208177
   36  C  9  Z    0.108528  -0.058494  -0.054666  -0.078647   0.047531
   37  H 10  S   -0.328532  -0.214889   0.097101  -0.192771  -0.342183
   38  H 11  S   -0.157623   0.118680  -0.045492   0.021121  -0.026729
   39  H 12  S   -0.154988  -0.130996  -0.060462   0.006594   0.094132
   40  H 13  S   -0.001495  -0.229270  -0.022236   0.112300   0.002676
   41  H 14  S    0.155671  -0.175104   0.029338  -0.006637   0.005181
   42  H 15  S    0.153359   0.073880   0.058307   0.021804  -0.037705

                     36         37         38         39         40
                    0.1770     0.1858     0.1980     0.2072     0.2105
                     A          A          A          A          A   
    1  O  1  S   -0.039430  -0.006853  -0.003690   0.004695  -0.004221
    2  O  1  X    0.348395   0.043660   0.026324  -0.004462   0.019078
    3  O  1  Y    0.037236   0.007595   0.000203  -0.005524   0.007502
    4  O  1  Z   -0.061334  -0.007954  -0.004616   0.005861  -0.006562
    5  C  2  S    0.006389  -0.012400  -0.040261   0.003352  -0.008346
    6  C  2  X   -0.040725  -0.010487  -0.043867   0.003750  -0.030007
    7  C  2  Y   -0.330868  -0.028239  -0.025878  -0.027640  -0.017832
    8  C  2  Z    0.292949   0.030909   0.035716  -0.000157   0.020417
    9  O  3  S   -0.137897  -0.011758  -0.011228  -0.004841  -0.008243
   10  O  3  X   -0.045864   0.000455   0.007292  -0.001716   0.006908
   11  O  3  Y   -0.149681  -0.013096  -0.007624  -0.003256  -0.009615
   12  O  3  Z    0.179325   0.011529   0.006313   0.009047   0.008313
   13  C  4  S    0.183107  -0.069223  -0.005822  -0.004971   0.055019
   14  C  4  X   -0.044005  -0.105821  -0.135402  -0.027505  -0.028001
   15  C  4  Y    0.199236  -0.017808  -0.026207   0.111199  -0.002923
   16  C  4  Z    0.016446   0.012135   0.009695   0.026718   0.002744
   17  C  5  S   -0.278699   0.316286  -0.011752  -0.267482   0.191931
   18  C  5  X   -0.111222   0.020767   0.267430   0.203677   0.058029
   19  C  5  Y    0.149888   0.100549  -0.109210  -0.234340   0.165085
   20  C  5  Z    0.046907   0.029130  -0.047937  -0.078432   0.029504
   21  C  6  S    0.216348  -0.248175  -0.376957   0.102977  -0.099349
   22  C  6  X   -0.123095   0.029900  -0.022003  -0.005903   0.206616
   23  C  6  Y   -0.105298   0.202352  -0.151512   0.198103  -0.024136
   24  C  6  Z   -0.010360   0.026053  -0.033325   0.044586  -0.019005
   25  C  7  S    0.012718   0.453128   0.088833   0.005867  -0.347982
   26  C  7  X    0.035078  -0.020598  -0.116260  -0.014502  -0.418319
   27  C  7  Y   -0.166922  -0.004772  -0.008897   0.022047  -0.072165
   28  C  7  Z   -0.035823   0.007258   0.001571   0.004127  -0.003210
   29  C  8  S   -0.165742  -0.254227  -0.347683  -0.128812  -0.090251
   30  C  8  X    0.177750   0.103278  -0.059974  -0.064984   0.189528
   31  C  8  Y   -0.105093  -0.167744   0.123772   0.184315   0.095447
   32  C  8  Z   -0.037169  -0.048620   0.023894   0.040773   0.011505
   33  C  9  S    0.120381   0.321217  -0.025634   0.265130   0.195451
   34  C  9  X    0.187467   0.059325   0.208104  -0.092949   0.107489
   35  C  9  Y    0.090468  -0.081843   0.216218  -0.268851  -0.134258
   36  C  9  Z    0.014602  -0.023942   0.043278  -0.053933  -0.042612
   37  H 10  S    0.406284   0.053085   0.025466  -0.011229   0.022116
   38  H 11  S    0.033892  -0.328425   0.241283   0.470415  -0.210759
   39  H 12  S   -0.038636   0.014317   0.427395  -0.246153   0.026539
   40  H 13  S   -0.013025  -0.347629   0.025901   0.004383   0.595501
   41  H 14  S   -0.073474   0.022215   0.392360   0.264639   0.016053
   42  H 15  S    0.051103  -0.325045   0.266888  -0.442463  -0.217209

                     41         42
                    0.2140     0.2178
                     A          A   
    1  O  1  S    0.003265  -0.003507
    2  O  1  X    0.001526   0.005973
    3  O  1  Y   -0.001437   0.008792
    4  O  1  Z    0.003973  -0.007274
    5  C  2  S    0.007377   0.019718
    6  C  2  X    0.003908  -0.015153
    7  C  2  Y   -0.029030  -0.004652
    8  C  2  Z    0.000835   0.004819
    9  O  3  S   -0.005846  -0.004205
   10  O  3  X   -0.002176   0.004029
   11  O  3  Y   -0.004005  -0.008430
   12  O  3  Z    0.011055   0.008256
   13  C  4  S    0.023324   0.181558
   14  C  4  X   -0.008462   0.155486
   15  C  4  Y    0.175803   0.012439
   16  C  4  Z    0.036642  -0.023324
   17  C  5  S   -0.163223  -0.010759
   18  C  5  X    0.134383  -0.173867
   19  C  5  Y    0.026005   0.267454
   20  C  5  Z   -0.011460   0.073798
   21  C  6  S   -0.302156   0.054036
   22  C  6  X   -0.198931  -0.043438
   23  C  6  Y   -0.232420  -0.338426
   24  C  6  Z   -0.037246  -0.064158
   25  C  7  S   -0.011908  -0.133948
   26  C  7  X   -0.002539   0.300667
   27  C  7  Y    0.271547   0.021261
   28  C  7  Z    0.057513  -0.003119
   29  C  8  S    0.323842  -0.031525
   30  C  8  X    0.217826  -0.225748
   31  C  8  Y   -0.074499   0.334231
   32  C  8  Z   -0.022908   0.084734
   33  C  9  S    0.153768  -0.042851
   34  C  9  X   -0.159276  -0.033561
   35  C  9  Y   -0.115527  -0.304657
   36  C  9  Z   -0.014229  -0.073995
   37  H 10  S   -0.002529   0.010308
   38  H 11  S    0.163929  -0.255493
   39  H 12  S    0.447245   0.243582
   40  H 13  S   -0.030794  -0.158563
   41  H 14  S   -0.391446   0.361394
   42  H 15  S   -0.234498  -0.221361
 ...... END OF RHF CALCULATION ......
 STEP CPU TIME =     0.02 TOTAL CPU TIME =          0.0 (      0.0 MIN)
 TOTAL WALL CLOCK TIME=          0.0 SECONDS, CPU UTILIZATION IS    99.85%

     ----------------------------------------------------------------
     PROPERTY VALUES FOR THE RHF   SELF-CONSISTENT FIELD WAVEFUNCTION
     ----------------------------------------------------------------

                    -------------
                    MOPAC CHARGES
                    -------------
         ATOM NO.   TYPE          CHARGE        ATOM  ELECTRON DENSITY
           1         O             -0.4738          6.4738
           2         C              0.6143          3.3857
           3         O             -0.5062          6.5062
           4         C             -0.1532          4.1532
           5         C             -0.0756          4.0756
           6         C             -0.1713          4.1713
           7         C             -0.0958          4.0958
           8         C             -0.1685          4.1685
           9         C             -0.0710          4.0710
          10         H              0.3292          0.6708
          11         H              0.1558          0.8442
          12         H              0.1556          0.8444
          13         H              0.1479          0.8521
          14         H              0.1559          0.8441
          15         H              0.1568          0.8432

          ---------------------
          ELECTROSTATIC MOMENTS
          ---------------------

 POINT   1           X           Y           Z (ANGS)      CHARGE
                 0.000000    0.000000    0.000000       -0.00 (A.U.)
         DX          DY          DZ         /D/  (DEBYE)
     1.249381    1.234876   -1.043527    2.043238
 ...... END OF PROPERTY EVALUATION ......
 STEP CPU TIME =     0.01 TOTAL CPU TIME =          0.0 (      0.0 MIN)
 TOTAL WALL CLOCK TIME=          0.0 SECONDS, CPU UTILIZATION IS    99.88%

          NSERCH=  0     ENERGY=     -55.9058792

                                 -----------------------
                                 GRADIENT (HARTREE/BOHR)
                                 -----------------------
        ATOM     ZNUC       DE/DX         DE/DY         DE/DZ
 --------------------------------------------------------------
    1  O            8.0     0.0055111     0.0014095    -0.0021369
    2  C            6.0    -0.0316449     0.0141803    -0.0081925
    3  O            8.0     0.0089615    -0.0087057     0.0103620
    4  C            6.0     0.0003806    -0.0042467    -0.0036918
    5  C            6.0    -0.0002589     0.0027237    -0.0029164
    6  C            6.0     0.0005270    -0.0054064    -0.0023915
    7  C            6.0    -0.0050534     0.0016878     0.0028092
    8  C            6.0     0.0009626     0.0002595     0.0011697
    9  C            6.0    -0.0021548     0.0035219    -0.0010068
   10  H            1.0     0.0223229    -0.0047688     0.0028523
   11  H            1.0     0.0032008    -0.0025463     0.0007971
   12  H            1.0    -0.0002455    -0.0015802     0.0008757
   13  H            1.0    -0.0019990    -0.0006336     0.0006822
   14  H            1.0    -0.0017829     0.0021256     0.0019217
   15  H            1.0     0.0012729     0.0019793    -0.0011338

          MAXIMUM GRADIENT = 0.0316449    RMS GRADIENT = 0.0071222

 NSERCH:   0  E=      -55.9058791579  GRAD. MAX=  0.0316449  R.M.S.=  0.0071222

          FORCE CONSTANT MATRIX NOT UPDATED --- TAKING FIRST STEP
          MIN SEARCH, CORRECT HESSIAN, TRYING PURE NR STEP
               NR STEP HAS LENGTH         =  63.434442
          TRIM/QA LAMBDA FOR NON-TS MODES =  -0.03341392
          TRIM/QA STEP HAS LENGTH         =   0.300000
          RADIUS OF STEP TAKEN=   0.30000  CURRENT TRUST RADIUS=   0.30000

 BEGINNING GEOMETRY SEARCH POINT NSERCH=   1 ...

 COORDINATES OF ALL ATOMS ARE (ANGS)
   ATOM   CHARGE       X              Y              Z
 ------------------------------------------------------------
 O           8.0  -2.9654544937   0.1189074122  -0.2109967492
 C           6.0  -1.9727144520  -0.5919268959   0.3955901070
 O           8.0  -2.3144623220  -1.3874987816   1.2462520167
 C           6.0  -0.6081052599  -0.2127196555  -0.0156828343
 C           6.0  -0.1611756623   1.0965270245   0.1892719535
 C           6.0   1.2053324129   1.3649812231   0.0876107067
 C           6.0   2.1025198087   0.3345830528  -0.2118052485
 C           6.0   1.6356732452  -0.9592748199  -0.4627951036
 C           6.0   0.2702069728  -1.2403469611  -0.3831941918
 H           1.0  -3.8707064201  -0.1184795750   0.1054711713
 H           1.0  -0.8762574971   1.8974575587   0.3747876325
 H           1.0   1.5679438846   2.3808054769   0.2324859651
 H           1.0   3.1733151072   0.5232299481  -0.1675798826
 H           1.0   2.3355684091  -1.7646884054  -0.6686891474
 H           1.0  -0.1082837334  -2.2347566020  -0.6158263954

          INTERNUCLEAR DISTANCES (ANGS.)
          ------------------------------

                1 O          2 C          3 O          4 C          5 C     

   1 O       0.0000000    1.3633656 *  2.1946809 *  2.3885601 *  2.9966540 *
   2 C       1.3633656 *  0.0000000    1.2138171 *  1.4748226 *  2.4849782 *
   3 O       2.1946809 *  1.2138171 *  0.0000000    2.4257452 *  3.4531485  
   4 C       2.3885601 *  1.4748226 *  2.4257452 *  0.0000000    1.3985276 *
   5 C       2.9966540 *  2.4849782 *  3.4531485    1.3985276 *  0.0000000  
   6 C       4.3631789    3.7449062    4.6160103    2.4059023 *  1.3963334 *
   7 C       5.0725615    4.2231368    4.9599625    2.7722721 *  2.4219287 *
   8 C       4.7324683    3.7272284    4.3252501    2.4066150 *  2.8071656 *
   9 C       3.5137913    2.4612294 *  3.0589645    1.4008979 *  2.4443380 *
  10 H       0.9879198 *  1.9775477 *  2.3094775 *  3.2662097    3.9043414  
  11 H       2.8055531 *  2.7202363 *  3.6903687    2.1626883 *  1.0896090 *
  12 H       5.0857212    4.6260136    5.5046268    3.3945766    2.1543196 *
  13 H       6.1522235    5.2955033    5.9804269    3.8553644    3.4021819  
  14 H       5.6443121    4.5901374    5.0430207    3.3912002    3.8931198  
  15 H       3.7238483    2.6829004 *  3.0087216    2.1676317 *  3.4275985  

                6 C          7 C          8 C          9 C         10 H     

   1 O       4.3631789    5.0725615    4.7324683    3.5137913    0.9879198 *
   2 C       3.7449062    4.2231368    3.7272284    2.4612294 *  1.9775477 *
   3 O       4.6160103    4.9599625    4.3252501    3.0589645    2.3094775 *
   4 C       2.4059023 *  2.7722721 *  2.4066150 *  1.4008979 *  3.2662097  
   5 C       1.3963334 *  2.4219287 *  2.8071656 *  2.4443380 *  3.9043414  
   6 C       0.0000000    1.3986835 *  2.4269952 *  2.8078198 *  5.2883972  
   7 C       1.3986835 *  0.0000000    1.3982167 *  2.4222199 *  5.9987800  
   8 C       2.4269952 *  1.3982167 *  0.0000000    1.3963653 *  5.5991142  
   9 C       2.8078198 *  2.4222199 *  1.3963653 *  0.0000000    4.3179328  
  10 H       5.2883972    5.9987800    5.5991142    4.3179328    0.0000000  
  11 H       2.1677219 *  3.4146423    3.8951586    3.4255999    3.6198423  
  12 H       1.0882899 *  2.1610628 *  3.4123510    3.8956294    5.9867751  
  13 H       2.1556028 *  1.0881848 *  2.1562270 *  3.4036348    7.0784594  
  14 H       3.4123679    2.1610172 *  1.0867091 *  2.1499207 *  6.4673932  
  15 H       3.8959625    3.4135600    2.1660236 *  1.0891389 *  4.3766109  

               11 H         12 H         13 H         14 H         15 H     

   1 O       2.8055531 *  5.0857212    6.1522235    5.6443121    3.7238483  
   2 C       2.7202363 *  4.6260136    5.2955033    4.5901374    2.6829004 *
   3 O       3.6903687    5.5046268    5.9804269    5.0430207    3.0087216  
   4 C       2.1626883 *  3.3945766    3.8553644    3.3912002    2.1676317 *
   5 C       1.0896090 *  2.1543196 *  3.4021819    3.8931198    3.4275985  
   6 C       2.1677219 *  1.0882899 *  2.1556028 *  3.4123679    3.8959625  
   7 C       3.4146423    2.1610628 *  1.0881848 *  2.1610172 *  3.4135600  
   8 C       3.8951586    3.4123510    2.1562270 *  1.0867091 *  2.1660236 *
   9 C       3.4255999    3.8956294    3.4036348    2.1499207 *  1.0891389 *
  10 H       3.6198423    5.9867751    7.0784594    6.4673932    4.3766109  
  11 H       0.0000000    2.4955952 *  4.3106499    4.9815643    4.3181354  
  12 H       2.4955952 *  0.0000000    2.4875402 *  4.3112044    4.9832506  
  13 H       4.3106499    2.4875402 *  0.0000000    2.4874687 *  4.3100239  
  14 H       4.9815643    4.3112044    2.4874687 *  0.0000000    2.4892111 *
  15 H       4.3181354    4.9832506    4.3100239    2.4892111 *  0.0000000  

  * ... LESS THAN  3.000


 MOPAC ONE- AND TWO-ELECTRON INTEGRALS REQUIRE      5961 WORDS.
 ...... END OF ONE- AND TWO-ELECTRON INTEGRALS......
 STEP CPU TIME =     0.00 TOTAL CPU TIME =          0.0 (      0.0 MIN)
 TOTAL WALL CLOCK TIME=          0.0 SECONDS, CPU UTILIZATION IS    99.88%
 ...... END OF ONE-ELECTRON INTEGRALS ......
 STEP CPU TIME =     0.00 TOTAL CPU TIME =          0.0 (      0.0 MIN)
 TOTAL WALL CLOCK TIME=          0.0 SECONDS, CPU UTILIZATION IS    99.88%

          --------------------------
               R-PM6 SCF CALCULATION
          --------------------------
     DENSITY MATRIX CONV=  5.00E-05

 ITER EX DEM     TOTAL ENERGY        E CHANGE  DENSITY CHANGE    DIIS ERROR
   1  0  0      -55.8983833446   -55.8983833446   0.038051907   0.000000000
   2  1  0      -55.9069755631    -0.0085922184   0.015445628   0.000000000
   3  2  0      -55.9083920127    -0.0014164496   0.006618422   0.000000000
   4  3  0      -55.9086845036    -0.0002924909   0.002903769   0.000000000
   5  0  0      -55.9087521588    -0.0000676552   0.002829872   0.000000000
   6  1  0      -55.9087749465    -0.0000227877   0.000162960   0.000000000
   7  2  0      -55.9087750180    -0.0000000716   0.000128637   0.000000000
   8  3  0      -55.9087750512    -0.0000000331   0.000100407   0.000000000
   9  4  0      -55.9087750697    -0.0000000185   0.000079292   0.000000000
  10  5  0      -55.9087750810    -0.0000000112   0.000062875   0.000000000
  11  6  0      -55.9087750880    -0.0000000070   0.000050023   0.000000000
  12  7  0      -55.9087750925    -0.0000000045   0.000039882   0.000000000
  13  8  0      -55.9087750953    -0.0000000028   0.000031844   0.000000000

          -----------------
          DENSITY CONVERGED
          -----------------
     TIME TO FORM FOCK OPERATORS=       0.0 SECONDS (       0.0 SEC/ITER)
     TIME TO SOLVE SCF EQUATIONS=       0.0 SECONDS (       0.0 SEC/ITER)

 FINAL R-PM6 ENERGY IS      -55.9087750953 AFTER  13 ITERATIONS

 HEAT OF FORMATION IS       -60.63319 KCAL/MOL
 
 ...... END OF RHF CALCULATION ......
 STEP CPU TIME =     0.01 TOTAL CPU TIME =          0.1 (      0.0 MIN)
 TOTAL WALL CLOCK TIME=          0.1 SECONDS, CPU UTILIZATION IS    99.90%

          NSERCH=  1     ENERGY=     -55.9087751

                                 -----------------------
                                 GRADIENT (HARTREE/BOHR)
                                 -----------------------
        ATOM     ZNUC       DE/DX         DE/DY         DE/DZ
 --------------------------------------------------------------
    1  O            8.0     0.0004028    -0.0120527     0.0131647
    2  C            6.0     0.0083984     0.0054728    -0.0111791
    3  O            8.0    -0.0049757     0.0044226     0.0006941
    4  C            6.0     0.0011570     0.0039730    -0.0057187
    5  C            6.0    -0.0006575    -0.0019691     0.0062422
    6  C            6.0    -0.0001814    -0.0018043     0.0029833
    7  C            6.0    -0.0006000     0.0009226    -0.0066373
    8  C            6.0     0.0000499     0.0012893    -0.0008681
    9  C            6.0    -0.0025102    -0.0020656     0.0031265
   10  H            1.0     0.0022623     0.0016288    -0.0017061
   11  H            1.0     0.0001540     0.0000262    -0.0031183
   12  H            1.0    -0.0006566    -0.0003999    -0.0010724
   13  H            1.0    -0.0012747    -0.0010981     0.0039911
   14  H            1.0    -0.0014600     0.0003824     0.0024919
   15  H            1.0    -0.0001083     0.0012720    -0.0023939

          MAXIMUM GRADIENT = 0.0131647    RMS GRADIENT = 0.0042664

 NSERCH:   1  E=      -55.9087750953  GRAD. MAX=  0.0131647  R.M.S.=  0.0042664

          HESSIAN UPDATED USING THE BFGS FORMULA
             ACTUAL ENERGY CHANGE WAS  -0.0028959374
          PREDICTED ENERGY CHANGE WAS  -0.0059198439 RATIO=  0.489
          MIN SEARCH, CORRECT HESSIAN, TRYING PURE NR STEP
               NR STEP HAS LENGTH         = 210.556533
          TRIM/QA LAMBDA FOR NON-TS MODES =  -0.03106002
          TRIM/QA STEP HAS LENGTH         =   0.300000
          RADIUS OF STEP TAKEN=   0.30000  CURRENT TRUST RADIUS=   0.30000

 BEGINNING GEOMETRY SEARCH POINT NSERCH=   2 ...

 COORDINATES OF ALL ATOMS ARE (ANGS)
   ATOM   CHARGE       X              Y              Z
 ------------------------------------------------------------
 O           8.0  -2.9598697995   0.1200596124  -0.2245969139
 C           6.0  -1.9746108650  -0.5894395175   0.4225846358
 O           8.0  -2.3428877568  -1.4213104545   1.2233681151
 C           6.0  -0.5967790403  -0.2238789685   0.0493471194
 C           6.0  -0.1637682709   1.1069211610   0.1386693647
 C           6.0   1.2061159274   1.3746102655   0.0562426380
 C           6.0   2.1100928985   0.3211614694  -0.1407883089
 C           6.0   1.6398582944  -0.9610724699  -0.4529764461
 C           6.0   0.2712835433  -1.2332219236  -0.4010495504
 H           1.0  -3.8875801564  -0.0973459583   0.0829045684
 H           1.0  -0.8732940402   1.8914037212   0.4026462848
 H           1.0   1.5717237618   2.3828326943   0.2396587858
 H           1.0   3.1792938231   0.5371958426  -0.2202741128
 H           1.0   2.3397484514  -1.7587613534  -0.7022501715
 H           1.0  -0.1059267707  -2.2423541205  -0.5785860082

          INTERNUCLEAR DISTANCES (ANGS.)
          ------------------------------

                1 O          2 C          3 O          4 C          5 C     

   1 O       0.0000000    1.3758518 *  2.2029733 *  2.4036508 *  2.9873135 *
   2 C       1.3758518 *  0.0000000    1.2119783 *  1.4735540 *  2.4974784 *
   3 O       2.2029733 *  1.2119783 *  0.0000000    2.4209633 *  3.5095709  
   4 C       2.4036508 *  1.4735540 *  2.4209633 *  0.0000000    1.4023216 *
   5 C       2.9873135 *  2.4974784 *  3.5095709    1.4023216 *  0.0000000  
   6 C       4.3598401    3.7561577    4.6663456    2.4094907 *  1.3982254 *
   7 C       5.0746416    4.2227228    4.9725414    2.7677385 *  2.4219743 *
   8 C       4.7305922    3.7375267    4.3455973    2.4079721 *  2.8070823 *
   9 C       3.5075431    2.4772708 *  3.0835048    1.4054049 *  2.4406631 *
  10 H       1.0012337 *  2.0042430 *  2.3322979 *  3.2934038    3.9140955  
  11 H       2.8080051 *  2.7143838 *  3.7158263    2.1623371 *  1.0901943 *
  12 H       5.0863558    4.6308048    5.5464739    3.3961108    2.1564048 *
  13 H       6.1533203    5.3146315    6.0344295    3.8614320    3.4102040  
  14 H       5.6430554    4.6093669    5.0743434    3.3976398    3.8970345  
  15 H       3.7217332    2.6882056 *  2.9874983 *  2.1701332 *  3.4257037  

                6 C          7 C          8 C          9 C         10 H     

   1 O       4.3598401    5.0746416    4.7305922    3.5075431    1.0012337 *
   2 C       3.7561577    4.2227228    3.7375267    2.4772708 *  2.0042430 *
   3 O       4.6663456    4.9725414    4.3455973    3.0835048    2.3322979 *
   4 C       2.4094907 *  2.7677385 *  2.4079721 *  1.4054049 *  3.2934038  
   5 C       1.3982254 *  2.4219743 *  2.8070823 *  2.4406631 *  3.9140955  
   6 C       0.0000000    1.4020520 *  2.4295782 *  2.8078135 *  5.3021793  
   7 C       1.4020520 *  0.0000000    1.4009661 *  2.4217893 *  6.0164166  
   8 C       2.4295782 *  1.4009661 *  0.0000000    1.3963376 *  5.6201217  
   9 C       2.8078135 *  2.4217893 *  1.3963376 *  0.0000000    4.3382684  
  10 H       5.3021793    6.0164166    5.6201217    4.3382684    0.0000000  
  11 H       2.1704877 *  3.4149055    3.8967480    3.4233420    3.6253663  
  12 H       1.0880363 *  2.1645022 *  3.4155655    3.8958315    5.9983212  
  13 H       2.1612856 *  1.0936999 *  2.1607453 *  3.4093376    7.1017792  
  14 H       3.4173750    2.1665780 *  1.0900877 *  2.1553331 *  6.4927953  
  15 H       3.8996019    3.4167268    2.1691533 *  1.0918583 *  4.3976735  

               11 H         12 H         13 H         14 H         15 H     

   1 O       2.8080051 *  5.0863558    6.1533203    5.6430554    3.7217332  
   2 C       2.7143838 *  4.6308048    5.3146315    4.6093669    2.6882056 *
   3 O       3.7158263    5.5464739    6.0344295    5.0743434    2.9874983 *
   4 C       2.1623371 *  3.3961108    3.8614320    3.3976398    2.1701332 *
   5 C       1.0901943 *  2.1564048 *  3.4102040    3.8970345    3.4257037  
   6 C       2.1704877 *  1.0880363 *  2.1612856 *  3.4173750    3.8996019  
   7 C       3.4149055    2.1645022 *  1.0936999 *  2.1665780 *  3.4167268  
   8 C       3.8967480    3.4155655    2.1607453 *  1.0900877 *  2.1691533 *
   9 C       3.4233420    3.8958315    3.4093376    2.1553331 *  1.0918583 *
  10 H       3.6253663    5.9983212    7.1017792    6.4927953    4.3976735  
  11 H       0.0000000    2.4992358 *  4.3180293    4.9867969    4.3173630  
  12 H       2.4992358 *  0.0000000    2.4904207 *  4.3162317    4.9876236  
  13 H       4.3180293    2.4904207 *  0.0000000    2.4916976 *  4.3182126  
  14 H       4.9867969    4.3162317    2.4916976 *  0.0000000    2.4960934 *
  15 H       4.3173630    4.9876236    4.3182126    2.4960934 *  0.0000000  

  * ... LESS THAN  3.000


 MOPAC ONE- AND TWO-ELECTRON INTEGRALS REQUIRE      5961 WORDS.
 ...... END OF ONE- AND TWO-ELECTRON INTEGRALS......
 STEP CPU TIME =     0.00 TOTAL CPU TIME =          0.1 (      0.0 MIN)
 TOTAL WALL CLOCK TIME=          0.1 SECONDS, CPU UTILIZATION IS    99.91%
 ...... END OF ONE-ELECTRON INTEGRALS ......
 STEP CPU TIME =     0.00 TOTAL CPU TIME =          0.1 (      0.0 MIN)
 TOTAL WALL CLOCK TIME=          0.1 SECONDS, CPU UTILIZATION IS    99.91%

          --------------------------
               R-PM6 SCF CALCULATION
          --------------------------
     DENSITY MATRIX CONV=  1.00E-05

 ITER EX DEM     TOTAL ENERGY        E CHANGE  DENSITY CHANGE    DIIS ERROR
   1  0  0      -55.8915232893   -55.8915232893   0.042649956   0.000000000
   2  1  0      -55.9041586032    -0.0126353139   0.016998582   0.000000000
   3  2  0      -55.9064948589    -0.0023362557   0.007188988   0.000000000
   4  3  0      -55.9070266430    -0.0005317842   0.003719392   0.000000000
   5  0  0      -55.9071628006    -0.0001361575   0.004751443   0.000000000
   6  1  0      -55.9072152482    -0.0000524476   0.000158414   0.000000000
   7  2  0      -55.9072153433    -0.0000000952   0.000115065   0.000000000
   8  3  0      -55.9072153859    -0.0000000425   0.000084851   0.000000000
   9  4  0      -55.9072154082    -0.0000000223   0.000063185   0.000000000
  10  5  0      -55.9072154207    -0.0000000125   0.000047490   0.000000000
  11  6  0      -55.9072154279    -0.0000000072   0.000035725   0.000000000
  12  7  0      -55.9072154321    -0.0000000042   0.000027284   0.000000000
  13  8  0      -55.9072154345    -0.0000000025   0.000021637   0.000000000
  14  9  0      -55.9072154360    -0.0000000015   0.000017159   0.000000000
  15 10  0      -55.9072154368    -0.0000000009   0.000013610   0.000000000
  16 11  0      -55.9072154374    -0.0000000005   0.000010799   0.000000000

          ----------------
          ENERGY CONVERGED
          ----------------
     TIME TO FORM FOCK OPERATORS=       0.0 SECONDS (       0.0 SEC/ITER)
     TIME TO SOLVE SCF EQUATIONS=       0.0 SECONDS (       0.0 SEC/ITER)

 FINAL R-PM6 ENERGY IS      -55.9072154374 AFTER  16 ITERATIONS

 HEAT OF FORMATION IS       -59.65446 KCAL/MOL
 
 ...... END OF RHF CALCULATION ......
 STEP CPU TIME =     0.01 TOTAL CPU TIME =          0.1 (      0.0 MIN)
 TOTAL WALL CLOCK TIME=          0.1 SECONDS, CPU UTILIZATION IS    99.92%

          NSERCH=  2     ENERGY=     -55.9072154

                                 -----------------------
                                 GRADIENT (HARTREE/BOHR)
                                 -----------------------
        ATOM     ZNUC       DE/DX         DE/DY         DE/DZ
 --------------------------------------------------------------
    1  O            8.0    -0.0025848    -0.0094944     0.0060392
    2  C            6.0     0.0135476     0.0072326    -0.0047857
    3  O            8.0    -0.0036573     0.0026239    -0.0020021
    4  C            6.0     0.0022660    -0.0043932     0.0155599
    5  C            6.0    -0.0023263     0.0040003    -0.0126117
    6  C            6.0    -0.0014663     0.0039575    -0.0073962
    7  C            6.0     0.0006506    -0.0057694     0.0188033
    8  C            6.0    -0.0002510     0.0002912    -0.0016723
    9  C            6.0    -0.0016808     0.0016623    -0.0145615
   10  H            1.0    -0.0051531     0.0023326    -0.0005242
   11  H            1.0     0.0003120    -0.0010618     0.0031977
   12  H            1.0    -0.0003230    -0.0008770     0.0027562
   13  H            1.0     0.0010340     0.0013189    -0.0051397
   14  H            1.0    -0.0001288    -0.0008456     0.0007191
   15  H            1.0    -0.0002387    -0.0009779     0.0016180

          MAXIMUM GRADIENT = 0.0188033    RMS GRADIENT = 0.0060185

 NSERCH:   2  E=      -55.9072154374  GRAD. MAX=  0.0188033  R.M.S.=  0.0060185

          HESSIAN UPDATED USING THE BFGS FORMULA
             ACTUAL ENERGY CHANGE WAS   0.0015596580
          PREDICTED ENERGY CHANGE WAS  -0.0036865120 RATIO= -0.423
          MIN SEARCH, CORRECT HESSIAN, TRYING PURE NR STEP
               NR STEP HAS LENGTH         =  41.606897
          TRIM/QA LAMBDA FOR NON-TS MODES =  -0.13405514
          TRIM/QA STEP HAS LENGTH         =   0.150000
          RADIUS OF STEP TAKEN=   0.15000  CURRENT TRUST RADIUS=   0.15000

 BEGINNING GEOMETRY SEARCH POINT NSERCH=   3 ...

 COORDINATES OF ALL ATOMS ARE (ANGS)
   ATOM   CHARGE       X              Y              Z
 ------------------------------------------------------------
 O           8.0  -2.9556692597   0.1477495018  -0.2458764987
 C           6.0  -1.9984505681  -0.5921345527   0.4301715842
 O           8.0  -2.3274613138  -1.4351652722   1.2278644823
 C           6.0  -0.6136369900  -0.2254013489   0.0332494891
 C           6.0  -0.1626138173   1.0975136534   0.1597172778
 C           6.0   1.2058432767   1.3706069849   0.0709498912
 C           6.0   2.1085747775   0.3298946370  -0.1776620831
 C           6.0   1.6405505140  -0.9625752935  -0.4473563282
 C           6.0   0.2737287440  -1.2358417425  -0.3720693038
 H           1.0  -3.8740602060  -0.1014357313   0.0821836950
 H           1.0  -0.8729355926   1.8911684699   0.3986839043
 H           1.0   1.5720656144   2.3835194796   0.2338952627
 H           1.0   3.1793177049   0.5357128322  -0.2134380779
 H           1.0   2.3423612985  -1.7567461776  -0.7073483895
 H           1.0  -0.1042141825  -2.2400654400  -0.5780649055

          INTERNUCLEAR DISTANCES (ANGS.)
          ------------------------------

                1 O          2 C          3 O          4 C          5 C     

   1 O       0.0000000    1.3859066 *  2.2521494 *  2.3879422 *  2.9778712 *
   2 C       1.3859066 *  0.0000000    1.2063427 *  1.4865225 *  2.5096520 *
   3 O       2.2521494 *  1.2063427 *  0.0000000    2.4140894 *  3.4988521  
   4 C       2.3879422 *  1.4865225 *  2.4140894 *  0.0000000    1.4033959 *
   5 C       2.9778712 *  2.5096520 *  3.4988521    1.4033959 *  0.0000000  
   6 C       4.3490167    3.7747707    4.6577946    2.4205727 *  1.3982612 *
   7 C       5.0679777    4.2529116    4.9768823    2.7862653 *  2.4210249 *
   8 C       4.7327214    3.7615968    4.3329925    2.4198696 *  2.8042658 *
   9 C       3.5155740    2.4941428 *  3.0603444    1.4045252 *  2.4326404 *
  10 H       1.0065578 *  1.9697189 *  2.3416633 *  3.2631460    3.9010672  
  11 H       2.7915493 *  2.7266407 *  3.7239336    2.1634800 *  1.0915814 *
  12 H       5.0723990    4.6520562    5.5476696    3.4094021    2.1606541 *
  13 H       6.1473273    5.3381230    6.0238135    3.8764229    3.4093066  
  14 H       5.6488218    4.6360457    5.0651462    3.4104880    3.8953180  
  15 H       3.7340066    2.7056143 *  2.9752434 *  2.1661229 *  3.4186499  

                6 C          7 C          8 C          9 C         10 H     

   1 O       4.3490167    5.0679777    4.7327214    3.5155740    1.0065578 *
   2 C       3.7747707    4.2529116    3.7615968    2.4941428 *  1.9697189 *
   3 O       4.6577946    4.9768823    4.3329925    3.0603444    2.3416633 *
   4 C       2.4205727 *  2.7862653 *  2.4198696 *  1.4045252 *  3.2631460  
   5 C       1.3982612 *  2.4210249 *  2.8042658 *  2.4326404 *  3.9010672  
   6 C       0.0000000    1.3999337 *  2.4292697 *  2.8033335 *  5.2888993  
   7 C       1.3999337 *  0.0000000    1.4008070 *  2.4199142 *  6.0037894  
   8 C       2.4292697 *  1.4008070 *  0.0000000    1.3959027 *  5.6065056  
   9 C       2.8033335 *  2.4199142 *  1.3959027 *  0.0000000    4.3240462  
  10 H       5.2888993    6.0037894    5.6065056    4.3240462    0.0000000  
  11 H       2.1678827 *  3.4145504    3.8957990    3.4186390    3.6162678  
  12 H       1.0893400 *  2.1620815 *  3.4154274    3.8926402    5.9881805  
  13 H       2.1616027 *  1.0909315 *  2.1604142 *  3.4067604    7.0882643  
  14 H       3.4172737    2.1654777 *  1.0912569 *  2.1593967 *  6.4813046  
  15 H       3.8954366    3.4148869    2.1663955 *  1.0925842 *  4.3842222  

               11 H         12 H         13 H         14 H         15 H     

   1 O       2.7915493 *  5.0723990    6.1473273    5.6488218    3.7340066  
   2 C       2.7266407 *  4.6520562    5.3381230    4.6360457    2.7056143 *
   3 O       3.7239336    5.5476696    6.0238135    5.0651462    2.9752434 *
   4 C       2.1634800 *  3.4094021    3.8764229    3.4104880    2.1661229 *
   5 C       1.0915814 *  2.1606541 *  3.4093066    3.8953180    3.4186499  
   6 C       2.1678827 *  1.0893400 *  2.1616027 *  3.4172737    3.8954366  
   7 C       3.4145504    2.1620815 *  1.0909315 *  2.1654777 *  3.4148869  
   8 C       3.8957990    3.4154274    2.1604142 *  1.0912569 *  2.1663955 *
   9 C       3.4186390    3.8926402    3.4067604    2.1593967 *  1.0925842 *
  10 H       3.6162678    5.9881805    7.0882643    6.4813046    4.3842222  
  11 H       0.0000000    2.4995191 *  4.3165623    4.9868550    4.3141702  
  12 H       2.4995191 *  0.0000000    2.4895292 *  4.3152167    4.9846495  
  13 H       4.3165623    2.4895292 *  0.0000000    2.4899421 *  4.3150295  
  14 H       4.9868550    4.3152167    2.4899421 *  0.0000000    2.4972071 *
  15 H       4.3141702    4.9846495    4.3150295    2.4972071 *  0.0000000  

  * ... LESS THAN  3.000


 MOPAC ONE- AND TWO-ELECTRON INTEGRALS REQUIRE      5961 WORDS.
 ...... END OF ONE- AND TWO-ELECTRON INTEGRALS......
 STEP CPU TIME =     0.00 TOTAL CPU TIME =          0.1 (      0.0 MIN)
 TOTAL WALL CLOCK TIME=          0.1 SECONDS, CPU UTILIZATION IS    99.92%
 ...... END OF ONE-ELECTRON INTEGRALS ......
 STEP CPU TIME =     0.00 TOTAL CPU TIME =          0.1 (      0.0 MIN)
 TOTAL WALL CLOCK TIME=          0.1 SECONDS, CPU UTILIZATION IS    99.92%

          --------------------------
               R-PM6 SCF CALCULATION
          --------------------------
     DENSITY MATRIX CONV=  5.00E-05

 ITER EX DEM     TOTAL ENERGY        E CHANGE  DENSITY CHANGE    DIIS ERROR
   1  0  0      -55.9056277617   -55.9056277617   0.019009869   0.000000000
   2  1  0      -55.9091344999    -0.0035067381   0.007848584   0.000000000
   3  2  0      -55.9097890519    -0.0006545520   0.003448073   0.000000000
   4  3  0      -55.9099401252    -0.0001510733   0.001665230   0.000000000
   5  0  0      -55.9099789418    -0.0000388166   0.002267411   0.000000000
   6  1  0      -55.9099936920    -0.0000147502   0.000058442   0.000000000
   7  2  0      -55.9099937084    -0.0000000164   0.000046248   0.000000000
   8  3  0      -55.9099937144    -0.0000000060   0.000037212   0.000000000

          -----------------
          DENSITY CONVERGED
          -----------------
     TIME TO FORM FOCK OPERATORS=       0.0 SECONDS (       0.0 SEC/ITER)
     TIME TO SOLVE SCF EQUATIONS=       0.0 SECONDS (       0.0 SEC/ITER)

 FINAL R-PM6 ENERGY IS      -55.9099937144 AFTER   8 ITERATIONS

 HEAT OF FORMATION IS       -61.39791 KCAL/MOL
 
 ...... END OF RHF CALCULATION ......
 STEP CPU TIME =     0.00 TOTAL CPU TIME =          0.1 (      0.0 MIN)
 TOTAL WALL CLOCK TIME=          0.1 SECONDS, CPU UTILIZATION IS    99.93%

          NSERCH=  3     ENERGY=     -55.9099937

                                 -----------------------
                                 GRADIENT (HARTREE/BOHR)
                                 -----------------------
        ATOM     ZNUC       DE/DX         DE/DY         DE/DZ
 --------------------------------------------------------------
    1  O            8.0    -0.0017028     0.0060607    -0.0095667
    2  C            6.0    -0.0052201    -0.0033666     0.0109351
    3  O            8.0     0.0052420     0.0004262    -0.0014198
    4  C            6.0    -0.0003842    -0.0037485     0.0031519
    5  C            6.0     0.0010686     0.0022076    -0.0069511
[...]
   27  C  7  Y   -0.016041  -0.324934   0.074519  -0.026948  -0.141152
   28  C  7  Z   -0.015854  -0.055762   0.023729  -0.037481   0.000324
   29  C  8  S    0.051340   0.352325   0.130100   0.093320   0.077079
   30  C  8  X    0.204559   0.141649  -0.127746   0.246628   0.022672
   31  C  8  Y    0.157124  -0.034947  -0.247307  -0.164308   0.084082
   32  C  8  Z   -0.002830  -0.024459  -0.021523  -0.058828   0.009981
   33  C  9  S   -0.256685  -0.230841   0.167827  -0.023418  -0.128856
   34  C  9  X   -0.035774   0.265065   0.190091  -0.089258   0.040405
   35  C  9  Y    0.004357   0.020008  -0.219410  -0.219409   0.148680
   36  C  9  Z    0.005582  -0.032476  -0.059723  -0.022534   0.017565
   37  H 10  S   -0.181153  -0.079027  -0.168382   0.174201   0.244863
   38  H 11  S   -0.087114   0.216607   0.050101   0.213100  -0.110455
   39  H 12  S   -0.016595  -0.177347   0.221627   0.166187  -0.062404
   40  H 13  S    0.221216  -0.057463  -0.139583   0.166328  -0.167378
   41  H 14  S    0.037691   0.229517   0.116851   0.230078   0.006619
   42  H 15  S   -0.111192  -0.157403   0.163416   0.141644  -0.161659

                     11         12         13         14         15
                   -0.6068    -0.5913    -0.5763    -0.5651    -0.5418
                     A          A          A          A          A   
    1  O  1  S    0.201320  -0.000048   0.134733  -0.070112  -0.008043
    2  O  1  X    0.121682  -0.065756   0.193444   0.037003   0.005241
    3  O  1  Y    0.298078   0.077600   0.133403  -0.221704  -0.064999
    4  O  1  Z    0.033463  -0.471397  -0.009679  -0.043820  -0.011685
    5  C  2  S    0.032538   0.000559  -0.001480  -0.056228  -0.000868
    6  C  2  X    0.312499  -0.074349   0.018828  -0.133674   0.017668
    7  C  2  Y    0.015237   0.089052  -0.031901   0.104304   0.041222
    8  C  2  Z   -0.038867  -0.548669  -0.012781   0.032554   0.003543
    9  O  3  S    0.150476   0.000735  -0.027938   0.078676   0.041232
   10  O  3  X    0.162199  -0.079262   0.117166  -0.237071  -0.002328
   11  O  3  Y   -0.244580   0.092345  -0.011514  -0.059772  -0.088206
   12  O  3  Z   -0.060303  -0.576306  -0.023661   0.019693  -0.014709
   13  C  4  S    0.074331   0.000928  -0.167602   0.169315  -0.005884
   14  C  4  X   -0.188967  -0.035039   0.021350   0.225196  -0.050408
   15  C  4  Y   -0.081332   0.042242  -0.325452  -0.195393   0.092871
   16  C  4  Z    0.013640  -0.245655  -0.056174  -0.062097   0.020853
   17  C  5  S   -0.186496  -0.001458   0.064895  -0.061835   0.046139
   18  C  5  X    0.189983  -0.018980   0.174374   0.198724   0.329371
   19  C  5  Y   -0.063847   0.015761   0.369801  -0.028328  -0.214649
   20  C  5  Z   -0.035007  -0.123031   0.033060  -0.031875  -0.078032
   21  C  6  S    0.170888   0.001015  -0.075105   0.052911   0.059154
   22  C  6  X   -0.010510  -0.004269  -0.335960  -0.167146  -0.204033
   23  C  6  Y    0.042746   0.010240  -0.114241   0.350612  -0.366870
   24  C  6  Z    0.008253  -0.066694   0.026498   0.076697  -0.030105
   25  C  7  S   -0.165285  -0.000805   0.097753  -0.098623   0.005132
   26  C  7  X   -0.325696  -0.008258  -0.040305   0.258298  -0.048726
   27  C  7  Y   -0.102044   0.011128  -0.319318  -0.190429   0.085136
   28  C  7  Z    0.027736  -0.046141  -0.045023  -0.064681   0.019660
   29  C  8  S    0.176097   0.000704  -0.067967   0.045324  -0.055552
   30  C  8  X    0.036071  -0.011787   0.063145   0.320550   0.324575
   31  C  8  Y   -0.005792   0.007167   0.391184  -0.027198  -0.206878
   32  C  8  Z   -0.005571  -0.065741   0.051989  -0.047599  -0.076098
   33  C  9  S   -0.192472  -0.000256   0.066446  -0.030723  -0.048448
   34  C  9  X    0.108328  -0.012212  -0.239157  -0.284547  -0.203783
   35  C  9  Y    0.185611   0.018766  -0.026130   0.253151  -0.376382
   36  C  9  Z    0.014912  -0.122403   0.026736   0.077179  -0.031846
   37  H 10  S   -0.076264   0.000592  -0.124000  -0.015227  -0.002326
   38  H 11  S   -0.203476  -0.001155   0.147091  -0.147899  -0.257409
   39  H 12  S    0.111797   0.001377  -0.183169   0.231172  -0.266390
   40  H 13  S   -0.317019  -0.001197  -0.024831   0.100011  -0.019024
   41  H 14  S    0.108394   0.000536  -0.208082   0.194661   0.244873
   42  H 15  S   -0.232448  -0.000837   0.102267  -0.130862   0.278592

                     16         17         18         19         20
                   -0.5122    -0.5005    -0.4722    -0.4580    -0.4506
                     A          A          A          A          A   
    1  O  1  S    0.243251  -0.000058   0.049659  -0.023343   0.000130
    2  O  1  X    0.261937   0.025971   0.072662  -0.007725  -0.108223
    3  O  1  Y    0.425824  -0.031341   0.171476  -0.075487   0.129022
    4  O  1  Z    0.034440   0.187264   0.016950  -0.015236  -0.788021
    5  C  2  S   -0.046164  -0.000122  -0.093338   0.011437  -0.000064
    6  C  2  X   -0.111529   0.012945  -0.174345   0.017607   0.011352
    7  C  2  Y   -0.228960  -0.015136  -0.086914   0.035994  -0.013705
    8  C  2  Z   -0.021795   0.094891   0.009958   0.003842   0.083013
    9  O  3  S   -0.205024   0.000162  -0.085897   0.027928  -0.000228
   10  O  3  X    0.273367   0.026350  -0.144745  -0.076570   0.080049
   11  O  3  Y    0.364922  -0.031769   0.271098  -0.063597  -0.091924
   12  O  3  Z    0.020638   0.193851   0.064006   0.002592   0.571309
   13  C  4  S   -0.030253   0.000108   0.039892   0.004125  -0.000157
   14  C  4  X    0.270406  -0.050401   0.159450   0.039011   0.001861
   15  C  4  Y    0.068112   0.058411   0.000782  -0.352961  -0.000201
   16  C  4  Z   -0.026674  -0.372722  -0.021032  -0.060444   0.012556
   17  C  5  S    0.027600  -0.000001  -0.019936   0.020637  -0.000197
   18  C  5  X    0.115335  -0.050347  -0.310874  -0.048694  -0.000837
   19  C  5  Y   -0.141439   0.057637  -0.019064   0.337652  -0.000057
   20  C  5  Z   -0.038091  -0.368683   0.039281   0.058954  -0.012379
   21  C  6  S   -0.023829   0.000061   0.032034  -0.011958   0.000074
   22  C  6  X   -0.070370  -0.052019   0.324382   0.052094  -0.004014
   23  C  6  Y    0.001725   0.061600   0.010577  -0.338331   0.005456
   24  C  6  Z    0.009259  -0.392975  -0.041355  -0.060182  -0.025331
   25  C  7  S   -0.031505   0.000045  -0.010283   0.002559  -0.000109
   26  C  7  X    0.246947  -0.053403  -0.381195  -0.053068  -0.003023
   27  C  7  Y    0.133786   0.061099  -0.057156   0.342369   0.003033
   28  C  7  Z   -0.012585  -0.392863   0.042522   0.060231  -0.028254
   29  C  8  S   -0.033332   0.000143   0.027429   0.010815  -0.000071
   30  C  8  X   -0.006910  -0.052564   0.335111   0.042626  -0.002922
   31  C  8  Y   -0.196025   0.062067   0.065197  -0.337125   0.004135
   32  C  8  Z   -0.030280  -0.393921  -0.034242  -0.058741  -0.018607
   33  C  9  S    0.002151  -0.000062  -0.015260  -0.018284  -0.000045
   34  C  9  X    0.042660  -0.050200  -0.326364  -0.047015   0.000220
   35  C  9  Y    0.135751   0.057921  -0.086613   0.325667  -0.000777
   36  C  9  Z    0.014815  -0.372040   0.030710   0.057165  -0.002594
   37  H 10  S   -0.209456  -0.000113  -0.063731   0.015494  -0.000122
   38  H 11  S   -0.103488   0.000347   0.160856   0.244965  -0.001476
   39  H 12  S   -0.028097   0.000372   0.103801  -0.264247   0.001078
   40  H 13  S    0.191281  -0.000684  -0.325959   0.019604   0.000288
   41  H 14  S    0.087861  -0.000047   0.164919   0.239669  -0.001021
   42  H 15  S   -0.103347   0.000288   0.130724  -0.259888   0.000878

                     21         22         23         24         25
                   -0.4145    -0.3788    -0.3745    -0.0289    -0.0045
                     A          A          A          A          A   
    1  O  1  S   -0.009909   0.000218   0.000102  -0.000301   0.000125
    2  O  1  X   -0.068193   0.012877   0.001548  -0.020499  -0.000189
    3  O  1  Y    0.402457  -0.014918  -0.001615   0.024460   0.000141
    4  O  1  Z    0.074626   0.091337   0.010550  -0.147834  -0.001423
    5  C  2  S    0.082252   0.000089  -0.000019  -0.000065  -0.000100
    6  C  2  X    0.093986  -0.003150   0.000049   0.050879   0.001451
    7  C  2  Y    0.050488   0.003908  -0.000069  -0.059456  -0.001760
    8  C  2  Z   -0.004801  -0.023910   0.000258   0.369377   0.010113
    9  O  3  S    0.022553   0.000036  -0.000003   0.000079  -0.000013
   10  O  3  X   -0.727733   0.024491   0.000307  -0.036347  -0.000881
   11  O  3  Y    0.324620  -0.029943  -0.000386   0.043091   0.001013
   12  O  3  Z    0.153073   0.186063   0.002687  -0.265415  -0.006055
   13  C  4  S    0.082621   0.000179  -0.000023  -0.000055   0.000031
   14  C  4  X   -0.270113  -0.079284  -0.003423   0.057656  -0.000814
   15  C  4  Y   -0.065715   0.091186   0.003975  -0.066786   0.000839
   16  C  4  Z    0.026676  -0.584635  -0.025131   0.427179  -0.005721
   17  C  5  S   -0.030132  -0.000099   0.000037   0.000122   0.000077
   18  C  5  X    0.122807  -0.028935  -0.065533  -0.046740  -0.066989
   19  C  5  Y    0.041649   0.033940   0.076109   0.053988   0.077802
   20  C  5  Z   -0.009911  -0.216281  -0.487704  -0.347214  -0.498496
   21  C  6  S    0.022716   0.000072   0.000035  -0.000033  -0.000035
   22  C  6  X   -0.121166   0.042110  -0.065533  -0.023942   0.064451
   23  C  6  Y   -0.033847  -0.049250   0.076266   0.027990  -0.074990
   24  C  6  Z    0.010411   0.315013  -0.488615  -0.179116   0.480502
   25  C  7  S    0.008896  -0.000012   0.000017  -0.000019   0.000020
   26  C  7  X    0.054948   0.071705   0.002630   0.065994  -0.000499
   27  C  7  Y   -0.004124  -0.083755  -0.003071  -0.077127   0.000568
   28  C  7  Z   -0.008807   0.536007   0.019686   0.493270  -0.003579
   29  C  8  S    0.006410   0.000087  -0.000023   0.000001   0.000031
   30  C  8  X   -0.086207   0.036866   0.068401  -0.023859  -0.064110
   31  C  8  Y   -0.002919  -0.043215  -0.079827   0.027843   0.074784
   32  C  8  Z    0.010492   0.276116   0.510435  -0.178029  -0.478079
   33  C  9  S    0.000593  -0.000033  -0.000027  -0.000189  -0.000048
   34  C  9  X    0.082993  -0.033942   0.063144  -0.046293   0.067316
   35  C  9  Y   -0.036120   0.039755  -0.073647   0.053958  -0.078504
   36  C  9  Z   -0.016774  -0.253573   0.470116  -0.346216   0.501148
   37  H 10  S    0.038732  -0.000266  -0.000128   0.000359  -0.000211
   38  H 11  S   -0.056226  -0.000082  -0.000042   0.000031  -0.000082
   39  H 12  S   -0.045489  -0.000050  -0.000002   0.000084   0.000027
   40  H 13  S    0.055683   0.000015   0.000011   0.000018  -0.000020
   41  H 14  S   -0.047195  -0.000007  -0.000032  -0.000007  -0.000040
   42  H 15  S   -0.014764  -0.000109   0.000015   0.000043  -0.000023

                     26         27         28         29         30
                    0.0331     0.0620     0.0807     0.1093     0.1373
                     A          A          A          A          A   
    1  O  1  S   -0.000811   0.230243   0.001073  -0.143552   0.008719
    2  O  1  X    0.028454   0.027563   0.008312  -0.017875   0.048859
    3  O  1  Y   -0.032291  -0.415898  -0.011825   0.200616  -0.104203
    4  O  1  Z    0.209374  -0.071366   0.060965   0.035168  -0.023787
    5  C  2  S    0.002197  -0.514692  -0.002832  -0.252854  -0.182896
    6  C  2  X   -0.092754   0.095814  -0.032239  -0.510024   0.326726
    7  C  2  Y    0.109907  -0.356359   0.036900   0.311972   0.186477
    8  C  2  Z   -0.668524  -0.072614  -0.235767   0.121254  -0.014377
    9  O  3  S    0.000164  -0.014937   0.000137   0.059871   0.129590
   10  O  3  X    0.052621  -0.046236   0.015540   0.281615   0.069872
   11  O  3  Y   -0.062010   0.200235  -0.016653   0.085508   0.286042
   12  O  3  Z    0.378373   0.039613   0.111350  -0.025248   0.036354
   13  C  4  S   -0.000957   0.227532   0.001239   0.168095   0.085364
   14  C  4  X    0.037049  -0.340895   0.052622  -0.448945   0.095948
   15  C  4  Y   -0.040624  -0.128526  -0.063766   0.069149   0.432627
   16  C  4  Z    0.264781   0.025506   0.405335   0.070541   0.054328
   17  C  5  S   -0.000388   0.019872  -0.000018  -0.116401  -0.135952
   18  C  5  X   -0.000641  -0.050076  -0.052979  -0.082709   0.192258
   19  C  5  Y    0.001486  -0.016216   0.061563   0.063597   0.403377
   20  C  5  Z   -0.006377   0.006403  -0.392794   0.021321   0.037297
   21  C  6  S   -0.000049   0.027153   0.000138   0.072427  -0.065334
   22  C  6  X   -0.032095  -0.056619   0.050098  -0.170936   0.072956
   23  C  6  Y    0.037512  -0.004696  -0.058683   0.006724   0.160983
   24  C  6  Z   -0.240159   0.003661   0.375993   0.023833   0.015237
   25  C  7  S   -0.000090   0.018950   0.000126   0.021403  -0.016976
   26  C  7  X    0.048690  -0.016752  -0.049933  -0.055026   0.025914
   27  C  7  Y   -0.056762  -0.008868   0.058273   0.024797   0.232804
   28  C  7  Z    0.363687   0.004438  -0.372422   0.011341   0.033023
   29  C  8  S   -0.000271   0.047176   0.000208   0.049130   0.007495
   30  C  8  X   -0.033225  -0.079159   0.049728  -0.118294   0.137808
   31  C  8  Y    0.039405  -0.031507  -0.058479  -0.021327   0.204389
   32  C  8  Z   -0.251052   0.002685   0.373361   0.012297   0.013367
   33  C  9  S    0.000712  -0.073859  -0.000130   0.069565   0.102579
   34  C  9  X    0.000614   0.019397  -0.052035  -0.208356   0.034269
   35  C  9  Y   -0.000609  -0.074929   0.060420   0.111597   0.177110
   36  C  9  Z    0.008953  -0.012440  -0.386755   0.045854   0.023330
   37  H 10  S    0.000966  -0.316584  -0.001701   0.122589   0.071131
   38  H 11  S    0.000087  -0.032349  -0.000299  -0.068329  -0.079221
   39  H 12  S   -0.000062  -0.000869  -0.000085  -0.029567  -0.184754
   40  H 13  S   -0.000019   0.017282   0.000018   0.059187  -0.084576
   41  H 14  S    0.000264  -0.025112  -0.000039   0.052528   0.076650
   42  H 15  S    0.000226  -0.037695  -0.000107  -0.015627   0.157665

                     31         32         33
                    0.1480     0.1561     0.1618
                     A          A          A   
    1  O  1  S    0.085086  -0.031913  -0.046413
    2  O  1  X   -0.131125   0.207761   0.103924
    3  O  1  Y   -0.005423  -0.081965   0.019535
    4  O  1  Z    0.016884  -0.041840  -0.010975
    5  C  2  S    0.244965  -0.096161  -0.069429
    6  C  2  X   -0.096849   0.367043  -0.009338
    7  C  2  Y   -0.307063   0.067552   0.057100
    8  C  2  Z   -0.035793  -0.039792   0.010093
    9  O  3  S   -0.138396   0.081480   0.023449
   10  O  3  X   -0.161197  -0.006819   0.038491
   11  O  3  Y   -0.270385   0.184568   0.046948
   12  O  3  Z   -0.021645   0.030786   0.002426
   13  C  4  S   -0.179278  -0.246130   0.053483
   14  C  4  X   -0.117966   0.127855   0.076809
   15  C  4  Y    0.216841   0.061028  -0.330101
   16  C  4  Z    0.050079  -0.007704  -0.061979
   17  C  5  S    0.033101  -0.098780  -0.032411
   18  C  5  X   -0.125133  -0.249819  -0.259148
   19  C  5  Y    0.047308  -0.103528  -0.214595
   20  C  5  Z    0.024159   0.017334   0.001323
   21  C  6  S   -0.101181  -0.017687  -0.011073
   22  C  6  X   -0.203694  -0.312284  -0.377088
   23  C  6  Y    0.197741  -0.012414   0.161347
   24  C  6  Z    0.058203   0.040029   0.075758
   25  C  7  S    0.019276   0.131674  -0.001050
   26  C  7  X   -0.155701  -0.272425  -0.093360
   27  C  7  Y    0.319822  -0.117268   0.440655
   28  C  7  Z    0.070790   0.018037   0.081367
   29  C  8  S    0.107335  -0.064253   0.027651
   30  C  8  X   -0.133669  -0.278769   0.277311
   31  C  8  Y    0.193468  -0.189003   0.307174
   32  C  8  Z    0.048237   0.007852   0.010873
   33  C  9  S    0.039414  -0.043063  -0.025338
   34  C  9  X   -0.269087  -0.284958   0.368310
   35  C  9  Y    0.202928  -0.012208  -0.101142
   36  C  9  Z    0.067763   0.036336  -0.065258
   37  H 10  S   -0.252761   0.297825   0.165990
   38  H 11  S   -0.183363  -0.041060  -0.007636
   39  H 12  S   -0.066772   0.147203  -0.044908
   40  H 13  S    0.085758   0.221087  -0.001297
   41  H 14  S    0.206175   0.131385   0.016801
   42  H 15  S    0.097895  -0.077931   0.041999

     ----------------------------------------------------------------
     PROPERTY VALUES FOR THE RHF   SELF-CONSISTENT FIELD WAVEFUNCTION
     ----------------------------------------------------------------

                    -------------
                    MOPAC CHARGES
                    -------------
         ATOM NO.   TYPE          CHARGE        ATOM  ELECTRON DENSITY
           1         O             -0.5367          6.5367
           2         C              0.6428          3.3572
           3         O             -0.5117          6.5117
           4         C             -0.1915          4.1915
           5         C             -0.0335          4.0335
           6         C             -0.2016          4.2016
           7         C             -0.0653          4.0653
           8         C             -0.1974          4.1974
           9         C             -0.0440          4.0440
          10         H              0.3425          0.6575
          11         H              0.1658          0.8342
          12         H              0.1592          0.8408
          13         H              0.1465          0.8535
          14         H              0.1595          0.8405
          15         H              0.1654          0.8346

          ---------------------
          ELECTROSTATIC MOMENTS
          ---------------------

 POINT   1           X           Y           Z (ANGS)      CHARGE
                 0.000000    0.000000    0.000000       -0.00 (A.U.)
         DX          DY          DZ         /D/  (DEBYE)
     2.030334    1.683207   -0.006889    2.637326
 ...... END OF PROPERTY EVALUATION ......
 STEP CPU TIME =     0.00 TOTAL CPU TIME =          0.8 (      0.0 MIN)
 TOTAL WALL CLOCK TIME=          0.8 SECONDS, CPU UTILIZATION IS    94.56%
  $VIB   
          IVIB=   0 IATOM=   0 ICOORD=   0 E=      -55.9150690100
  7.090109618E-05-3.631887474E-05 7.047485012E-05 6.394634897E-05 2.083766448E-04
 -1.366228676E-04-6.890782629E-05-1.603603852E-04 6.022184353E-05-7.872152110E-05
 -3.608650549E-05 8.375662757E-06-6.602071219E-06 1.562003251E-05 3.898324909E-06
 -5.572110021E-05 1.009970046E-05 6.410886867E-06-2.275567165E-05 4.159987804E-05
  8.283656900E-06 2.930547308E-05-1.268814253E-05 9.004613679E-07-2.248422580E-05
  1.699485738E-05 5.019944196E-06 2.311986344E-05-3.659004284E-06-1.904323357E-05
  1.210194909E-05-2.012046976E-06-6.144909109E-06 2.013070682E-05 5.141789239E-06
 -1.466585805E-06 6.037258722E-05-1.517684336E-06 3.395116516E-06-8.128939594E-06
 -2.066684154E-06 3.727422443E-06-1.655666893E-05-4.312357482E-05-7.430573536E-06
  2.030334447E+00 1.683206773E+00-6.888652205E-03
 ......END OF GEOMETRY SEARCH......
 STEP CPU TIME =     0.00 TOTAL CPU TIME =          0.8 (      0.0 MIN)
 TOTAL WALL CLOCK TIME=          0.8 SECONDS, CPU UTILIZATION IS    94.57%
                580000  WORDS OF DYNAMIC MEMORY USED
 EXECUTION OF GAMESS TERMINATED NORMALLY 02:50:56 07-MAY-2024    
 DDI: 263640 bytes (0.3 MB / 0 MWords) used by master data server.

 ----------------------------------------
 CPU timing information for all processes
 ========================================
 0: 0.619 + 0.157 = 0.776
 ----------------------------------------
 ddikick.x: exited gracefully.
----- accounting info -----
Files used on the master node ip-172-31-6-188 were:
-rw-rw-r-- 1 ubuntu ubuntu     863 May  7 02:50 /home/ubuntu/scratch/gamess/restart/da5d1d14cc9d696aa0668bdbd3fe099d.F05
-rw-rw-r-- 1 ubuntu ubuntu       0 May  7 02:50 /home/ubuntu/scratch/gamess/restart/da5d1d14cc9d696aa0668bdbd3fe099d.F08
-rw-rw-r-- 1 ubuntu ubuntu 1537840 May  7 02:50 /home/ubuntu/scratch/gamess/restart/da5d1d14cc9d696aa0668bdbd3fe099d.F10
-rw-rw-r-- 1 ubuntu ubuntu 1143220 May  7 02:50 /home/ubuntu/scratch/gamess/restart/da5d1d14cc9d696aa0668bdbd3fe099d.dat
Tue May  7 02:50:59 UTC 2024
0.0u 0.0s 0:03.99 3.7% 0+0k 0+8io 0pf+0w
